
                                 *****************
                                 * O   R   C   A *
                                 *****************

                                            #,                                       
                                            ###                                      
                                            ####                                     
                                            #####                                    
                                            ######                                   
                                           ########,                                 
                                     ,,################,,,,,                         
                               ,,#################################,,                 
                          ,,##########################################,,             
                       ,#########################################, ''#####,          
                    ,#############################################,,   '####,        
                  ,##################################################,,,,####,       
                ,###########''''           ''''###############################       
              ,#####''   ,,,,##########,,,,          '''####'''          '####       
            ,##' ,,,,###########################,,,                        '##       
           ' ,,###''''                  '''############,,,                           
         ,,##''                                '''############,,,,        ,,,,,,###''
      ,#''                                            '''#######################'''  
     '                                                          ''''####''''         
             ,#######,   #######,   ,#######,      ##                                
            ,#'     '#,  ##    ##  ,#'     '#,    #''#        ######   ,####,        
            ##       ##  ##   ,#'  ##            #'  '#       #        #'  '#        
            ##       ##  #######   ##           ,######,      #####,   #    #        
            '#,     ,#'  ##    ##  '#,     ,#' ,#      #,         ##   #,  ,#        
             '#######'   ##     ##  '#######'  #'      '#     #####' # '####'        



                  #######################################################
                  #                        -***-                        #
                  #          Department of theory and spectroscopy      #
                  #    Directorship and core code : Frank Neese         #
                  #        Max Planck Institute fuer Kohlenforschung    #
                  #                Kaiser Wilhelm Platz 1               #
                  #                 D-45470 Muelheim/Ruhr               #
                  #                      Germany                        #
                  #                                                     #
                  #                  All rights reserved                #
                  #                        -***-                        #
                  #######################################################


                         Program Version 5.0.3 -  RELEASE  -


 With contributions from (in alphabetic order):
   Daniel Aravena         : Magnetic Suceptibility
   Michael Atanasov       : Ab Initio Ligand Field Theory (pilot matlab implementation)
   Alexander A. Auer      : GIAO ZORA, VPT2 properties, NMR spectrum
   Ute Becker             : Parallelization
   Giovanni Bistoni       : ED, misc. LED, open-shell LED, HFLD
   Martin Brehm           : Molecular dynamics
   Dmytro Bykov           : SCF Hessian
   Vijay G. Chilkuri      : MRCI spin determinant printing, contributions to CSF-ICE
   Dipayan Datta          : RHF DLPNO-CCSD density
   Achintya Kumar Dutta   : EOM-CC, STEOM-CC
   Dmitry Ganyushin       : Spin-Orbit,Spin-Spin,Magnetic field MRCI
   Miquel Garcia          : C-PCM and meta-GGA Hessian, CC/C-PCM, Gaussian charge scheme
   Yang Guo               : DLPNO-NEVPT2, F12-NEVPT2, CIM, IAO-localization
   Andreas Hansen         : Spin unrestricted coupled pair/coupled cluster methods
   Benjamin Helmich-Paris : MC-RPA, TRAH-SCF, COSX integrals
   Lee Huntington         : MR-EOM, pCC
   Robert Izsak           : Overlap fitted RIJCOSX, COSX-SCS-MP3, EOM
   Marcus Kettner         : VPT2
   Christian Kollmar      : KDIIS, OOCD, Brueckner-CCSD(T), CCSD density, CASPT2, CASPT2-K
   Simone Kossmann        : Meta GGA functionals, TD-DFT gradient, OOMP2, MP2 Hessian
   Martin Krupicka        : Initial AUTO-CI
   Lucas Lang             : DCDCAS
   Marvin Lechner         : AUTO-CI (C++ implementation), FIC-MRCC
   Dagmar Lenk            : GEPOL surface, SMD
   Dimitrios Liakos       : Extrapolation schemes; Compound Job, initial MDCI parallelization
   Dimitrios Manganas     : Further ROCIS development; embedding schemes
   Dimitrios Pantazis     : SARC Basis sets
   Anastasios Papadopoulos: AUTO-CI, single reference methods and gradients
   Taras Petrenko         : DFT Hessian,TD-DFT gradient, ASA, ECA, R-Raman, ABS, FL, XAS/XES, NRVS
   Peter Pinski           : DLPNO-MP2, DLPNO-MP2 Gradient
   Christoph Reimann      : Effective Core Potentials
   Marius Retegan         : Local ZFS, SOC
   Christoph Riplinger    : Optimizer, TS searches, QM/MM, DLPNO-CCSD(T), (RO)-DLPNO pert. Triples
   Tobias Risthaus        : Range-separated hybrids, TD-DFT gradient, RPA, STAB
   Michael Roemelt        : Original ROCIS implementation
   Masaaki Saitow         : Open-shell DLPNO-CCSD energy and density
   Barbara Sandhoefer     : DKH picture change effects
   Avijit Sen             : IP-ROCIS
   Kantharuban Sivalingam : CASSCF convergence, NEVPT2, FIC-MRCI
   Bernardo de Souza      : ESD, SOC TD-DFT
   Georgi Stoychev        : AutoAux, RI-MP2 NMR, DLPNO-MP2 response
   Willem Van den Heuvel  : Paramagnetic NMR
   Boris Wezisla          : Elementary symmetry handling
   Frank Wennmohs         : Technical directorship


 We gratefully acknowledge several colleagues who have allowed us to
 interface, adapt or use parts of their codes:
   Stefan Grimme, W. Hujo, H. Kruse, P. Pracht,  : VdW corrections, initial TS optimization,
                  C. Bannwarth, S. Ehlert          DFT functionals, gCP, sTDA/sTD-DF
   Ed Valeev, F. Pavosevic, A. Kumar             : LibInt (2-el integral package), F12 methods
   Garnet Chan, S. Sharma, J. Yang, R. Olivares  : DMRG
   Ulf Ekstrom                                   : XCFun DFT Library
   Mihaly Kallay                                 : mrcc  (arbitrary order and MRCC methods)
   Jiri Pittner, Ondrej Demel                    : Mk-CCSD
   Frank Weinhold                                : gennbo (NPA and NBO analysis)
   Christopher J. Cramer and Donald G. Truhlar   : smd solvation model
   Lars Goerigk                                  : TD-DFT with DH, B97 family of functionals
   V. Asgeirsson, H. Jonsson                     : NEB implementation
   FAccTs GmbH                                   : IRC, NEB, NEB-TS, DLPNO-Multilevel, CI-OPT
                                                   MM, QMMM, 2- and 3-layer-ONIOM, Crystal-QMMM,
                                                   LR-CPCM, SF, NACMEs, symmetry and pop. for TD-DFT,
                                                   nearIR, NL-DFT gradient (VV10), updates on ESD,
                                                   ML-optimized integration grids
   S Lehtola, MJT Oliveira, MAL Marques          : LibXC Library
   Liviu Ungur et al                             : ANISO software


 Your calculation uses the libint2 library for the computation of 2-el integrals
 For citations please refer to: http://libint.valeyev.net

 Your ORCA version has been built with support for libXC version: 5.1.0
 For citations please refer to: https://tddft.org/programs/libxc/

 This ORCA versions uses:
   CBLAS   interface :  Fast vector & matrix operations
   LAPACKE interface :  Fast linear algebra routines
   SCALAPACK package :  Parallel linear algebra routines
   Shared memory     :  Shared parallel matrices
   BLAS/LAPACK       :  OpenBLAS 0.3.15  USE64BITINT DYNAMIC_ARCH NO_AFFINITY Zen SINGLE_THREADED
        Core in use  :  Zen
   Copyright (c) 2011-2014, The OpenBLAS Project




***************************************
The coordinates will be read from file: ../GO/CH2O2GO_trj.xyz
***************************************


================================================================================

----- Orbital basis set information -----
Your calculation utilizes the basis: cc-pVQZ 
       H, B-Ne : Obtained from the ccRepo (grant-hill.group.shef.ac.uk/ccrepo) Feb. 2017
                 T. H. Dunning, Jr., J. Chem. Phys. 90, 1007 (1989)
            He : Obtained from the ccRepo (grant-hill.group.shef.ac.uk/ccrepo) Feb. 2017
                 D. E. Woon, T. H. Dunning, Jr., J. Chem. Phys. 100, 2975 (1994)
  Li-Be, Na-Mg : Obtained from the ccRepo (grant-hill.group.shef.ac.uk/ccrepo) Feb. 2017
                 B. P. Prascher, D. E. Woon, K. A. Peterson, T. H. Dunning, Jr., A. K. Wilson, Theor. Chem. Acc. 128, 69 (2011)
         Al-Ar : Obtained from the ccRepo (grant-hill.group.shef.ac.uk/ccrepo) Feb. 2017
                 D. E. Woon, T. H. Dunning, Jr., J. Chem. Phys. 98, 1358 (1993)
            Ca : Obtained from the Peterson Research Group Website (tyr0.chem.wsu.edu/~kipeters) Feb. 2017
                 J. Koput, K. A. Peterson, J. Phys. Chem. 106, 9595 (2002)
         Sc-Zn : Obtained from the ccRepo (grant-hill.group.shef.ac.uk/ccrepo) Feb. 2017
                 N. B. Balabanov, K. A. Peterson, J. Chem. Phys. 123, 064107 (2005)
                 N. B. Balabanov, K. A. Peterson, J. Chem. Phys. 125, 074110 (2006)
         Ga-Kr : Obtained from the ccRepo (grant-hill.group.shef.ac.uk/ccrepo) Feb. 2017
                 A. K. Wilson, D. E. Woon, K. A. Peterson, T. H. Dunning, Jr., J. Chem. Phys. 110, 7667 (1999)

----- AuxJ basis set information -----
Your calculation utilizes the auxiliary basis: def2/J
   F. Weigend, Phys. Chem. Chem. Phys. 8, 1057 (2006).

================================================================================
                                        WARNINGS
                       Please study these warnings very carefully!
================================================================================

WARNING: Old DensityContainer found on disk!
         Will remove this file - 
         If you want to keep old densities, please start your calculation with a different basename. 


WARNING: Geometry Optimization
  ===> : Switching off AutoStart
         For restart on a previous wavefunction, please use MOREAD

INFO   : the flag for use of the SHARK integral package has been found!

================================================================================
                                       INPUT FILE
================================================================================
NAME = CH2O2GS.inp
|  1> # avogadro generated ORCA file
|  2> # CH2O2 | Frequencies | B3LYP/cc-pVQZ
|  3> # 
|  4> ! Opt Freq B3LYP cc-pVQZ
|  5> %FREQ SCALFREQ 0.98
|  6> 
|  7> END
|  8> %maxcore 1365
|  9> 
| 10> 
| 11> %pal
| 12>    nprocs 12
| 13> end
| 14> 
| 15> * xyzfile 0 1 ../GO/CH2O2GO_trj.xyz
| 16> 
| 17> 
| 18> 
| 19>                          ****END OF INPUT****
================================================================================

                       *****************************
                       * Geometry Optimization Run *
                       *****************************

Geometry optimization settings:
Update method            Update   .... BFGS
Choice of coordinates    CoordSys .... Z-matrix Internals
Initial Hessian          InHess   .... Almoef's Model

Convergence Tolerances:
Energy Change            TolE     ....  5.0000e-06 Eh
Max. Gradient            TolMAXG  ....  3.0000e-04 Eh/bohr
RMS Gradient             TolRMSG  ....  1.0000e-04 Eh/bohr
Max. Displacement        TolMAXD  ....  4.0000e-03 bohr
RMS Displacement         TolRMSD  ....  2.0000e-03 bohr
Strict Convergence                ....  False
------------------------------------------------------------------------------
                        ORCA OPTIMIZATION COORDINATE SETUP
------------------------------------------------------------------------------

The optimization will be done in new redundant internal coordinates
Making redundant internal coordinates   ...  (new redundants) done
Evaluating the initial hessian          ...  (Almloef) done
Evaluating the coordinates              ...  done
Calculating the B-matrix                .... done
Calculating the G-matrix                .... done
Diagonalizing the G-matrix              .... done
The first mode is                       ....    1
The number of degrees of freedom        ....    9

    -----------------------------------------------------------------
                    Redundant Internal Coordinates


    -----------------------------------------------------------------
         Definition                    Initial Value    Approx d2E/dq
    -----------------------------------------------------------------
      1. B(C   1,O   0)                  1.3471         0.655118   
      2. B(O   2,C   1)                  1.2045         1.105987   
      3. B(H   3,O   0)                  0.9772         0.488059   
      4. B(H   4,C   1)                  1.0996         0.347674   
      5. A(C   1,O   0,H   3)          106.6175         0.369594   
      6. A(O   0,C   1,H   4)          109.3375         0.351924   
      7. A(O   2,C   1,H   4)          125.4711         0.385010   
      8. A(O   0,C   1,O   2)          125.1914         0.480772   
      9. D(H   4,C   1,O   0,H   3)    179.9854         0.031760   
     10. D(O   2,C   1,O   0,H   3)     -0.0140         0.031760   
    -----------------------------------------------------------------

Number of atoms                         .... 5
Number of degrees of freedom            .... 10

         *************************************************************
         *                GEOMETRY OPTIMIZATION CYCLE   1            *
         *************************************************************
---------------------------------
CARTESIAN COORDINATES (ANGSTROEM)
---------------------------------
  O      0.534039    0.497825    0.880960
  C     -0.403061   -0.081875    0.106060
  O     -0.231761   -0.460775   -1.024440
  H      1.350839    0.541625    0.346260
  H     -1.345861   -0.154075    0.667260

----------------------------
CARTESIAN COORDINATES (A.U.)
----------------------------
  NO LB      ZA    FRAG     MASS         X           Y           Z
   0 O     8.0000    0    15.999    1.009187    0.940753    1.664773
   1 C     6.0000    0    12.011   -0.761675   -0.154721    0.200424
   2 O     8.0000    0    15.999   -0.437965   -0.870739   -1.935911
   3 H     1.0000    0     1.008    2.552716    1.023523    0.654337
   4 H     1.0000    0     1.008   -2.543309   -0.291160    1.260939

--------------------------------
INTERNAL COORDINATES (ANGSTROEM)
--------------------------------
 O      0   0   0     0.000000000000     0.00000000     0.00000000
 C      1   0   0     1.347100037117     0.00000000     0.00000000
 O      2   1   0     1.204549355568   125.19138095     0.00000000
 H      1   2   3     0.977233221908   106.61753665     0.00000000
 H      2   1   3     1.099559057077   109.33751031   179.99939136

---------------------------
INTERNAL COORDINATES (A.U.)
---------------------------
 O      0   0   0     0.000000000000     0.00000000     0.00000000
 C      1   0   0     2.545650145146     0.00000000     0.00000000
 O      2   1   0     2.276268396815   125.19138095     0.00000000
 H      1   2   3     1.846703158375   106.61753665     0.00000000
 H      2   1   3     2.077865485948   109.33751031   179.99939136

---------------------
BASIS SET INFORMATION
---------------------
There are 3 groups of distinct atoms

 Group   1 Type O   : 21s6p3d2f1g contracted to 5s4p3d2f1g pattern {99111/3111/111/11/1}
 Group   2 Type C   : 21s6p3d2f1g contracted to 5s4p3d2f1g pattern {99111/3111/111/11/1}
 Group   3 Type H   : 6s3p2d1f contracted to 4s3p2d1f pattern {3111/111/11/1}

Atom   0O    basis set group =>   1
Atom   1C    basis set group =>   2
Atom   2O    basis set group =>   1
Atom   3H    basis set group =>   3
Atom   4H    basis set group =>   3
---------------------------------
AUXILIARY/J BASIS SET INFORMATION
---------------------------------
There are 3 groups of distinct atoms

 Group   1 Type O   : 12s5p4d2f1g contracted to 6s4p3d1f1g pattern {711111/2111/211/2/1}
 Group   2 Type C   : 12s5p4d2f1g contracted to 6s4p3d1f1g pattern {711111/2111/211/2/1}
 Group   3 Type H   : 5s2p1d contracted to 3s1p1d pattern {311/2/1}

Atom   0O    basis set group =>   1
Atom   1C    basis set group =>   2
Atom   2O    basis set group =>   1
Atom   3H    basis set group =>   3
Atom   4H    basis set group =>   3


           ************************************************************
           *        Program running with 12 parallel MPI-processes    *
           *              working on a common directory               *
           ************************************************************
------------------------------------------------------------------------------
                           ORCA GTO INTEGRAL CALCULATION
                           -- RI-GTO INTEGRALS CHOSEN --
------------------------------------------------------------------------------
------------------------------------------------------------------------------
                   ___                                                        
                  /   \      - P O W E R E D   B Y -                         
                 /     \                                                     
                 |  |  |   _    _      __       _____    __    __             
                 |  |  |  | |  | |    /  \     |  _  \  |  |  /  |          
                  \  \/   | |  | |   /    \    | | | |  |  | /  /          
                 / \  \   | |__| |  /  /\  \   | |_| |  |  |/  /          
                |  |  |   |  __  | /  /__\  \  |    /   |      \           
                |  |  |   | |  | | |   __   |  |    \   |  |\   \          
                \     /   | |  | | |  |  |  |  | |\  \  |  | \   \       
                 \___/    |_|  |_| |__|  |__|  |_| \__\ |__|  \__/        
                                                                              
                      - O R C A' S   B I G   F R I E N D -                    
                                      &                                       
                       - I N T E G R A L  F E E D E R -                       
                                                                              
 v1 FN, 2020, v2 2021                                                         
------------------------------------------------------------------------------


Reading SHARK input file CH2O2GS.SHARKINP.tmp ... ok
----------------------
SHARK INTEGRAL PACKAGE
----------------------

Number of atoms                             ...      5
Number of basis functions                   ...    246
Number of shells                            ...     86
Maximum angular momentum                    ...      4
Integral batch strategy                     ... SHARK/LIBINT Hybrid
RI-J (if used) integral strategy            ... SPLIT-RIJ (Revised 2003 algorithm where possible)
Printlevel                                  ...      1
Contraction scheme used                     ... PARTIAL GENERAL contraction
Coulomb Range Separation                    ... NOT USED
Exchange Range Separation                   ... NOT USED
Finite Nucleus Model                        ... NOT USED
Auxiliary Coulomb fitting basis             ... AVAILABLE
   # of basis functions in Aux-J            ...    169
   # of shells in Aux-J                     ...     55
   Maximum angular momentum in Aux-J        ...      4
Auxiliary J/K fitting basis                 ... NOT available
Auxiliary Correlation fitting basis         ... NOT available
Auxiliary 'external' fitting basis          ... NOT available
Integral threshold                          ...     2.500000e-11
Primitive cut-off                           ...     2.500000e-12
Primitive pair pre-selection threshold      ...     2.500000e-12

Calculating pre-screening integrals         ... done (  0.0 sec) Dimension = 86
Calculating pre-screening integrals (ORCA)  ... done (  0.1 sec) Dimension = 65
Organizing shell pair data                  ... done (  0.1 sec)
Shell pair information
Total number of shell pairs                 ...      3741
Shell pairs after pre-screening             ...      3350
Total number of primitive shell pairs       ...      4671
Primitive shell pairs kept                  ...      3994
          la=0 lb=0:    734 shell pairs
          la=1 lb=0:    729 shell pairs
          la=1 lb=1:    169 shell pairs
          la=2 lb=0:    533 shell pairs
          la=2 lb=1:    232 shell pairs
          la=2 lb=2:     90 shell pairs
          la=3 lb=0:    336 shell pairs
          la=3 lb=1:    144 shell pairs
          la=3 lb=2:    104 shell pairs
          la=3 lb=3:     36 shell pairs
          la=4 lb=0:    120 shell pairs
          la=4 lb=1:     54 shell pairs
          la=4 lb=2:     39 shell pairs
          la=4 lb=3:     24 shell pairs
          la=4 lb=4:      6 shell pairs

Calculating one electron integrals          ... done (  0.0 sec)
Calculating RI/J V-Matrix + Cholesky decomp.... done (  0.0 sec)
Calculating Nuclear repulsion               ... done (  0.0 sec) ENN=     69.992730913536 Eh

SHARK setup successfully completed in   0.4 seconds

Maximum memory used throughout the entire GTOINT-calculation: 31.7 MB


           ************************************************************
           *        Program running with 12 parallel MPI-processes    *
           *              working on a common directory               *
           ************************************************************
-------------------------------------------------------------------------------
                                 ORCA SCF
-------------------------------------------------------------------------------

------------
SCF SETTINGS
------------
Hamiltonian:
 Density Functional     Method          .... DFT(GTOs)
 Exchange Functional    Exchange        .... B88
   X-Alpha parameter    XAlpha          ....  0.666667
   Becke's b parameter  XBeta           ....  0.004200
 Correlation Functional Correlation     .... LYP
 LDA part of GGA corr.  LDAOpt          .... VWN-5
 Gradients option       PostSCFGGA      .... off
 Hybrid DFT is turned on
   Fraction HF Exchange ScalHFX         ....  0.200000
   Scaling of DF-GGA-X  ScalDFX         ....  0.720000
   Scaling of DF-GGA-C  ScalDFC         ....  0.810000
   Scaling of DF-LDA-C  ScalLDAC        ....  1.000000
   Perturbative correction              ....  0.000000
   Density functional embedding theory  .... OFF
   NL short-range parameter             ....  4.800000
 RI-approximation to the Coulomb term is turned on
   Number of AuxJ basis functions       .... 169
   RIJ-COSX (HFX calculated with COS-X)).... on


General Settings:
 Integral files         IntName         .... CH2O2GS
 Hartree-Fock type      HFTyp           .... RHF
 Total Charge           Charge          ....    0
 Multiplicity           Mult            ....    1
 Number of Electrons    NEL             ....   24
 Basis Dimension        Dim             ....  225
 Nuclear Repulsion      ENuc            ....     69.9927309135 Eh

Convergence Acceleration:
 DIIS                   CNVDIIS         .... on
   Start iteration      DIISMaxIt       ....    12
   Startup error        DIISStart       ....  0.200000
   # of expansion vecs  DIISMaxEq       ....     5
   Bias factor          DIISBfac        ....   1.050
   Max. coefficient     DIISMaxC        ....  10.000
 Trust-Rad. Augm. Hess. CNVTRAH         .... auto
   Auto Start mean grad. ratio tolernc. ....  1.125000
   Auto Start start iteration           ....    20
   Auto Start num. interpolation iter.  ....    10
   Max. Number of Micro iterations      ....    16
   Max. Number of Macro iterations      .... Maxiter - #DIIS iter
   Number of Davidson start vectors     ....     2
   Converg. threshold I  (grad. norm)   ....   1.000e-05
   Converg. threshold II (energy diff.) ....   1.000e-08
   Grad. Scal. Fac. for Micro threshold ....   0.100
   Minimum threshold for Micro iter.    ....   0.010
   NR start threshold (gradient norm)   ....   0.001
   Initial trust radius                 ....   0.400
   Minimum AH scaling param. (alpha)    ....   1.000
   Maximum AH scaling param. (alpha)    .... 1000.000
   Orbital update algorithm             .... Taylor
   White noise on init. David. guess    .... on
   Maximum white noise                  ....   0.010
   Quad. conv. algorithm                .... NR
 SOSCF                  CNVSOSCF        .... on
   Start iteration      SOSCFMaxIt      ....   150
   Startup grad/error   SOSCFStart      ....  0.003300
 Level Shifting         CNVShift        .... on
   Level shift para.    LevelShift      ....    0.2500
   Turn off err/grad.   ShiftErr        ....    0.0010
 Zerner damping         CNVZerner       .... off
 Static damping         CNVDamp         .... on
   Fraction old density DampFac         ....    0.7000
   Max. Damping (<1)    DampMax         ....    0.9800
   Min. Damping (>=0)   DampMin         ....    0.0000
   Turn off err/grad.   DampErr         ....    0.1000
 Fernandez-Rico         CNVRico         .... off

SCF Procedure:
 Maximum # iterations   MaxIter         ....   125
 SCF integral mode      SCFMode         .... Direct
   Integral package                     .... SHARK and LIBINT hybrid scheme
 Reset frequency        DirectResetFreq ....    20
 Integral Threshold     Thresh          ....  2.500e-11 Eh
 Primitive CutOff       TCut            ....  2.500e-12 Eh

Convergence Tolerance:
 Convergence Check Mode ConvCheckMode   .... Total+1el-Energy
 Convergence forced     ConvForced      .... 0
 Energy Change          TolE            ....  1.000e-08 Eh
 1-El. energy change                    ....  1.000e-05 Eh
 Orbital Gradient       TolG            ....  1.000e-05
 Orbital Rotation angle TolX            ....  1.000e-05
 DIIS Error             TolErr          ....  5.000e-07


Diagonalization of the overlap matrix:
Smallest eigenvalue                        ... 2.507e-04
Time for diagonalization                   ...    0.007 sec
Threshold for overlap eigenvalues          ... 1.000e-08
Number of eigenvalues below threshold      ... 0
Time for construction of square roots      ...    0.005 sec
Total time needed                          ...    0.012 sec

Time for model grid setup =    0.029 sec

------------------------------
INITIAL GUESS: MODEL POTENTIAL
------------------------------
Loading Hartree-Fock densities                     ... done
Calculating cut-offs                               ... done
Initializing the effective Hamiltonian             ... done
Setting up the integral package (SHARK)            ... done
Starting the Coulomb interaction                   ... done (   0.0 sec)
Reading the grid                                   ... done
Mapping shells                                     ... done
Starting the XC term evaluation                    ... done (   0.0 sec)
  promolecular density results
     # of electrons  =     23.999324493
     EX              =    -22.112370014
     EC              =     -0.839819195
     EX+EC           =    -22.952189209
Transforming the Hamiltonian                       ... done (   0.0 sec)
Diagonalizing the Hamiltonian                      ... done (   0.0 sec)
Back transforming the eigenvectors                 ... done (   0.0 sec)
Now organizing SCF variables                       ... done
                      ------------------
                      INITIAL GUESS DONE (   0.1 sec)
                      ------------------
-------------------
DFT GRID GENERATION
-------------------

General Integration Accuracy     IntAcc      ... 4.388
Radial Grid Type                 RadialGrid  ... OptM3 with GC (2021)
Angular Grid (max. ang.)         AngularGrid ... 4 (Lebedev-302)
Angular grid pruning method      GridPruning ... 4 (adaptive)
Weight generation scheme         WeightScheme... Becke
Basis function cutoff            BFCut       ... 1.0000e-11
Integration weight cutoff        WCut        ... 1.0000e-14
Angular grids for H and He will be reduced by one unit
Partially contracted basis set               ... off
Rotationally invariant grid construction     ... off

Total number of grid points                  ...    24922
Total number of batches                      ...      393
Average number of points per batch           ...       63
Average number of grid points per atom       ...     4984
Time for grid setup =    0.174 sec

--------------------
COSX GRID GENERATION
--------------------

GRIDX 1
-------
General Integration Accuracy     IntAcc      ... 3.816
Radial Grid Type                 RadialGrid  ... OptM3 with GC (2021)
Angular Grid (max. ang.)         AngularGrid ... 1 (Lebedev-50)
Angular grid pruning method      GridPruning ... 4 (adaptive)
Weight generation scheme         WeightScheme... Becke
Basis function cutoff            BFCut       ... 1.0000e-11
Integration weight cutoff        WCut        ... 1.0000e-14
Angular grids for H and He will be reduced by one unit
Partially contracted basis set               ... on
Rotationally invariant grid construction     ... off

Total number of grid points                  ...     3191
Total number of batches                      ...       53
Average number of points per batch           ...       60
Average number of grid points per atom       ...      638
UseSFitting                                  ... on

GRIDX 2
-------
General Integration Accuracy     IntAcc      ... 4.020
Radial Grid Type                 RadialGrid  ... OptM3 with GC (2021)
Angular Grid (max. ang.)         AngularGrid ... 2 (Lebedev-110)
Angular grid pruning method      GridPruning ... 4 (adaptive)
Weight generation scheme         WeightScheme... Becke
Basis function cutoff            BFCut       ... 1.0000e-11
Integration weight cutoff        WCut        ... 1.0000e-14
Angular grids for H and He will be reduced by one unit
Partially contracted basis set               ... on
Rotationally invariant grid construction     ... off

Total number of grid points                  ...     7226
Total number of batches                      ...      115
Average number of points per batch           ...       62
Average number of grid points per atom       ...     1445
UseSFitting                                  ... on

GRIDX 3
-------
General Integration Accuracy     IntAcc      ... 4.338
Radial Grid Type                 RadialGrid  ... OptM3 with GC (2021)
Angular Grid (max. ang.)         AngularGrid ... 3 (Lebedev-194)
Angular grid pruning method      GridPruning ... 4 (adaptive)
Weight generation scheme         WeightScheme... Becke
Basis function cutoff            BFCut       ... 1.0000e-11
Integration weight cutoff        WCut        ... 1.0000e-14
Angular grids for H and He will be reduced by one unit
Partially contracted basis set               ... on
Rotationally invariant grid construction     ... off

Total number of grid points                  ...    16015
Total number of batches                      ...      252
Average number of points per batch           ...       63
Average number of grid points per atom       ...     3203
UseSFitting                                  ... on

Time for X-Grid setup             =    0.238 sec

 re-compute Schwartz prescreening matrix in partically contracted basis (1) ...done (   0.113 sec)
--------------
SCF ITERATIONS
--------------
ITER       Energy         Delta-E        Max-DP      RMS-DP      [F,P]     Damp
               ***  Starting incremental Fock matrix formation  ***
  0   -189.6266530184   0.000000000000 0.03613205  0.00089508  0.2996627 0.7000
  1   -189.6982479194  -0.071594900966 0.02616969  0.00061094  0.1033047 0.7000
                               ***Turning on DIIS***
  2   -189.7191744832  -0.020926563847 0.03216149  0.00074425  0.0329921 0.0000
  3   -189.7615461874  -0.042371704127 0.02155883  0.00048245  0.0535418 0.0000
  4   -189.7675194697  -0.005973282300 0.00821845  0.00016158  0.0146729 0.0000
  5   -189.7680784953  -0.000559025612 0.00268931  0.00005756  0.0034227 0.0000
                      *** Initiating the SOSCF procedure ***
                           *** Shutting down DIIS ***
                      *** Re-Reading the Fockian *** 
                      *** Removing any level shift *** 
ITER      Energy       Delta-E        Grad      Rot      Max-DP    RMS-DP
  6   -189.76809731  -0.0000188179  0.000358  0.000358  0.000694  0.000016
               *** Restarting incremental Fock matrix formation ***
  7   -189.76810230  -0.0000049903  0.000167  0.000511  0.000568  0.000011
  8   -189.76810237  -0.0000000659  0.000213  0.000233  0.000304  0.000006
  9   -189.76810271  -0.0000003384  0.000051  0.000115  0.000212  0.000004
 10   -189.76810272  -0.0000000106  0.000044  0.000058  0.000030  0.000001
 11   -189.76810275  -0.0000000336  0.000020  0.000031  0.000073  0.000001
 12   -189.76810275  -0.0000000028  0.000006  0.000008  0.000021  0.000000
                  ***Gradient check signals convergence***
              ***Rediagonalizing the Fockian in SOSCF/NRSCF***

               *****************************************************
               *                     SUCCESS                       *
               *           SCF CONVERGED AFTER  13 CYCLES          *
               *****************************************************

Old exchange energy                            =     -4.460849740 Eh
New exchange energy                            =     -4.460849162 Eh
Exchange energy change after final integration =      0.000000578 Eh
Total energy after final integration           =   -189.768102177 Eh
Final COS-X integration done in                =     0.586 sec

----------------
TOTAL SCF ENERGY
----------------

Total Energy       :         -189.76810218 Eh           -5163.85259 eV

Components:
Nuclear Repulsion  :           69.99273091 Eh            1904.59904 eV
Electronic Energy  :         -259.76083309 Eh           -7068.45162 eV
One Electron Energy:         -397.99471986 Eh          -10829.98691 eV
Two Electron Energy:          138.23388677 Eh            3761.53529 eV
Max COSX asymmetry :            0.00000088 Eh               0.00002 eV

Virial components:
Potential Energy   :         -378.79018821 Eh          -10307.40504 eV
Kinetic Energy     :          189.02208603 Eh            5143.55245 eV
Virial Ratio       :            2.00394671


DFT components:
N(Alpha)           :       12.000002525674 electrons
N(Beta)            :       12.000002525674 electrons
N(Total)           :       24.000005051348 electrons
E(X)               :      -17.792045160147 Eh       
E(C)               :       -0.993869235119 Eh       
E(XC)              :      -18.785914395266 Eh       
DFET-embed. en.    :        0.000000000000 Eh       

---------------
SCF CONVERGENCE
---------------

  Last Energy change         ...   -1.1279e-09  Tolerance :   1.0000e-08
  Last MAX-Density change    ...    1.5543e-15  Tolerance :   1.0000e-07
  Last RMS-Density change    ...    1.5157e-17  Tolerance :   5.0000e-09
  Last Orbital Gradient      ...    1.0986e-06  Tolerance :   1.0000e-05
  Last Orbital Rotation      ...    1.6387e-06  Tolerance :   1.0000e-05

             **** THE GBW FILE WAS UPDATED (CH2O2GS.gbw) ****
             **** DENSITY CH2O2GS.scfp WAS UPDATED ****
             **** ENERGY FILE WAS UPDATED (CH2O2GS.en.tmp) ****
             **** THE GBW FILE WAS UPDATED (CH2O2GS.gbw) ****
             **** DENSITY CH2O2GS.scfp WAS UPDATED ****
----------------
ORBITAL ENERGIES
----------------

  NO   OCC          E(Eh)            E(eV) 
   0   2.0000     -19.190070      -522.1884 
   1   2.0000     -19.132353      -520.6178 
   2   2.0000     -10.316810      -280.7347 
   3   2.0000      -1.122662       -30.5492 
   4   2.0000      -1.036688       -28.2097 
   5   2.0000      -0.673543       -18.3280 
   6   2.0000      -0.528283       -14.3753 
   7   2.0000      -0.500996       -13.6328 
   8   2.0000      -0.459908       -12.5147 
   9   2.0000      -0.419109       -11.4045 
  10   2.0000      -0.343942        -9.3591 
  11   2.0000      -0.303102        -8.2478 
  12   0.0000      -0.018264        -0.4970 
  13   0.0000       0.019607         0.5335 
  14   0.0000       0.053931         1.4675 
  15   0.0000       0.132707         3.6111 
  16   0.0000       0.160931         4.3792 
  17   0.0000       0.194365         5.2889 
  18   0.0000       0.242357         6.5949 
  19   0.0000       0.296260         8.0617 
  20   0.0000       0.312060         8.4916 
  21   0.0000       0.332831         9.0568 
  22   0.0000       0.362870         9.8742 
  23   0.0000       0.397553        10.8180 
  24   0.0000       0.398070        10.8320 
  25   0.0000       0.430337        11.7101 
  26   0.0000       0.446975        12.1628 
  27   0.0000       0.467156        12.7120 
  28   0.0000       0.519276        14.1302 
  29   0.0000       0.536346        14.5947 
  30   0.0000       0.544901        14.8275 
  31   0.0000       0.630754        17.1637 
  32   0.0000       0.632769        17.2185 
  33   0.0000       0.737593        20.0709 
  34   0.0000       0.748954        20.3801 
  35   0.0000       0.829974        22.5847 
  36   0.0000       0.834697        22.7133 
  37   0.0000       0.867216        23.5982 
  38   0.0000       0.923615        25.1328 
  39   0.0000       0.945768        25.7356 
  40   0.0000       0.959560        26.1110 
  41   0.0000       1.110853        30.2279 
  42   0.0000       1.139861        31.0172 
  43   0.0000       1.208631        32.8885 
  44   0.0000       1.223846        33.3025 
  45   0.0000       1.237101        33.6632 
  46   0.0000       1.280814        34.8527 
  47   0.0000       1.290630        35.1198 
  48   0.0000       1.375251        37.4225 
  49   0.0000       1.376078        37.4450 
  50   0.0000       1.409600        38.3572 
  51   0.0000       1.495088        40.6834 
  52   0.0000       1.501486        40.8575 
  53   0.0000       1.508920        41.0598 
  54   0.0000       1.597533        43.4711 
  55   0.0000       1.639594        44.6156 
  56   0.0000       1.676370        45.6163 
  57   0.0000       1.787365        48.6367 
  58   0.0000       1.810161        49.2570 
  59   0.0000       1.850346        50.3505 
  60   0.0000       1.854097        50.4525 
  61   0.0000       1.884297        51.2743 
  62   0.0000       1.952692        53.1354 
  63   0.0000       2.005359        54.5686 
  64   0.0000       2.047718        55.7212 
  65   0.0000       2.065561        56.2068 
  66   0.0000       2.140583        58.2482 
  67   0.0000       2.174078        59.1597 
  68   0.0000       2.197456        59.7958 
  69   0.0000       2.239325        60.9351 
  70   0.0000       2.325137        63.2702 
  71   0.0000       2.346414        63.8492 
  72   0.0000       2.405593        65.4595 
  73   0.0000       2.448435        66.6253 
  74   0.0000       2.458137        66.8893 
  75   0.0000       2.501817        68.0779 
  76   0.0000       2.570935        69.9587 
  77   0.0000       2.596116        70.6439 
  78   0.0000       2.684874        73.0591 
  79   0.0000       2.718877        73.9844 
  80   0.0000       2.804486        76.3139 
  81   0.0000       2.838546        77.2408 
  82   0.0000       2.923735        79.5589 
  83   0.0000       3.030040        82.4516 
  84   0.0000       3.045296        82.8667 
  85   0.0000       3.068135        83.4882 
  86   0.0000       3.090501        84.0968 
  87   0.0000       3.179675        86.5234 
  88   0.0000       3.291029        89.5534 
  89   0.0000       3.321166        90.3735 
  90   0.0000       3.367019        91.6212 
  91   0.0000       3.393623        92.3452 
  92   0.0000       3.410069        92.7927 
  93   0.0000       3.587643        97.6247 
  94   0.0000       3.595304        97.8332 
  95   0.0000       3.652019        99.3765 
  96   0.0000       3.659931        99.5918 
  97   0.0000       3.735404       101.6455 
  98   0.0000       3.768123       102.5359 
  99   0.0000       3.840199       104.4971 
 100   0.0000       3.884440       105.7010 
 101   0.0000       3.957390       107.6860 
 102   0.0000       3.996311       108.7452 
 103   0.0000       3.998828       108.8136 
 104   0.0000       4.073779       110.8532 
 105   0.0000       4.109264       111.8187 
 106   0.0000       4.212366       114.6243 
 107   0.0000       4.232643       115.1761 
 108   0.0000       4.285635       116.6180 
 109   0.0000       4.342216       118.1577 
 110   0.0000       4.380437       119.1978 
 111   0.0000       4.422984       120.3555 
 112   0.0000       4.491237       122.2128 
 113   0.0000       4.605489       125.3217 
 114   0.0000       4.708648       128.1288 
 115   0.0000       4.840225       131.7092 
 116   0.0000       5.030360       136.8830 
 117   0.0000       5.120607       139.3388 
 118   0.0000       5.136819       139.7799 
 119   0.0000       5.225095       142.1821 
 120   0.0000       5.240436       142.5995 
 121   0.0000       5.314950       144.6271 
 122   0.0000       5.408187       147.1642 
 123   0.0000       5.573152       151.6532 
 124   0.0000       5.617913       152.8712 
 125   0.0000       5.658619       153.9789 
 126   0.0000       5.778633       157.2446 
 127   0.0000       5.782013       157.3366 
 128   0.0000       5.872243       159.7918 
 129   0.0000       5.898776       160.5139 
 130   0.0000       5.941139       161.6666 
 131   0.0000       6.007174       163.4635 
 132   0.0000       6.069968       165.1722 
 133   0.0000       6.142129       167.1358 
 134   0.0000       6.183817       168.2702 
 135   0.0000       6.268802       170.5828 
 136   0.0000       6.319840       171.9716 
 137   0.0000       6.387401       173.8100 
 138   0.0000       6.514759       177.2756 
 139   0.0000       6.655468       181.1045 
 140   0.0000       6.692392       182.1093 
 141   0.0000       6.766862       184.1357 
 142   0.0000       6.813299       185.3993 
 143   0.0000       6.986479       190.1117 
 144   0.0000       7.015910       190.9126 
 145   0.0000       7.121875       193.7961 
 146   0.0000       7.178617       195.3401 
 147   0.0000       7.252582       197.3528 
 148   0.0000       7.307678       198.8520 
 149   0.0000       7.372030       200.6031 
 150   0.0000       7.473299       203.3588 
 151   0.0000       7.498011       204.0313 
 152   0.0000       7.614303       207.1957 
 153   0.0000       7.712831       209.8768 
 154   0.0000       7.735943       210.5057 
 155   0.0000       7.757427       211.0903 
 156   0.0000       7.836457       213.2408 
 157   0.0000       7.881594       214.4691 
 158   0.0000       7.921739       215.5615 
 159   0.0000       8.057849       219.2652 
 160   0.0000       8.071138       219.6268 
 161   0.0000       8.125696       221.1114 
 162   0.0000       8.389439       228.2883 
 163   0.0000       8.449675       229.9273 
 164   0.0000       8.454349       230.0545 
 165   0.0000       8.505799       231.4546 
 166   0.0000       8.524986       231.9767 
 167   0.0000       8.798048       239.4071 
 168   0.0000       8.853298       240.9105 
 169   0.0000       8.854418       240.9410 
 170   0.0000       8.874410       241.4850 
 171   0.0000       9.051621       246.3071 
 172   0.0000       9.110815       247.9179 
 173   0.0000       9.216178       250.7850 
 174   0.0000       9.353401       254.5190 
 175   0.0000       9.547550       259.8020 
 176   0.0000       9.642154       262.3764 
 177   0.0000       9.664392       262.9815 
 178   0.0000       9.714984       264.3582 
 179   0.0000       9.772462       265.9222 
 180   0.0000       9.882256       268.9099 
 181   0.0000       9.903084       269.4766 
 182   0.0000       9.971370       271.3348 
 183   0.0000      10.002271       272.1756 
 184   0.0000      10.192502       277.3521 
 185   0.0000      10.225880       278.2603 
 186   0.0000      10.240689       278.6633 
 187   0.0000      10.403937       283.1055 
 188   0.0000      10.451869       284.4098 
 189   0.0000      10.626761       289.1689 
 190   0.0000      10.749574       292.5108 
 191   0.0000      10.800604       293.8994 
 192   0.0000      10.897660       296.5404 
 193   0.0000      10.899874       296.6007 
 194   0.0000      10.980582       298.7968 
 195   0.0000      10.987248       298.9782 
 196   0.0000      11.042446       300.4802 
 197   0.0000      11.271296       306.7076 
 198   0.0000      11.316591       307.9401 
 199   0.0000      11.369914       309.3911 
 200   0.0000      11.457005       311.7609 
 201   0.0000      11.505737       313.0870 
 202   0.0000      11.616143       316.0913 
 203   0.0000      11.719517       318.9043 
 204   0.0000      11.785675       320.7045 
 205   0.0000      11.806544       321.2724 
 206   0.0000      11.929497       324.6181 
 207   0.0000      12.099730       329.2504 
 208   0.0000      12.135453       330.2225 
 209   0.0000      12.293208       334.5152 
 210   0.0000      12.354865       336.1930 
 211   0.0000      12.459689       339.0454 
 212   0.0000      12.517965       340.6311 
 213   0.0000      12.715535       346.0073 
 214   0.0000      12.939545       352.1029 
 215   0.0000      13.200122       359.1936 
 216   0.0000      13.667929       371.9233 
 217   0.0000      13.679714       372.2439 
 218   0.0000      13.752424       374.2225 
 219   0.0000      13.911325       378.5464 
 220   0.0000      14.059106       382.5677 
 221   0.0000      15.913346       433.0242 
 222   0.0000      24.201277       658.5502 
 223   0.0000      41.322195      1124.4341 
 224   0.0000      42.407054      1153.9546 

                    ********************************
                    * MULLIKEN POPULATION ANALYSIS *
                    ********************************

-----------------------
MULLIKEN ATOMIC CHARGES
-----------------------
   0 O :   -0.333882
   1 C :    0.452480
   2 O :   -0.394172
   3 H :    0.247310
   4 H :    0.028264
Sum of atomic charges:    0.0000000

--------------------------------
MULLIKEN REDUCED ORBITAL CHARGES
--------------------------------
  0 O s       :     3.713212  s :     3.713212
      pz      :     1.639470  p :     4.585784
      px      :     1.259444
      py      :     1.686870
      dz2     :     0.005346  d :     0.031679
      dxz     :     0.011795
      dyz     :     0.006653
      dx2y2   :     0.004207
      dxy     :     0.003677
      f0      :     0.000206  f :     0.003026
      f+1     :     0.000239
      f-1     :     0.000245
      f+2     :     0.000638
      f-2     :     0.000575
      f+3     :     0.000653
      f-3     :     0.000470
      g0      :     0.000020  g :     0.000181
      g+1     :     0.000021
      g-1     :     0.000005
      g+2     :     0.000021
      g-2     :     0.000018
      g+3     :     0.000041
      g-3     :     0.000034
      g+4     :     0.000014
      g-4     :     0.000006
  1 C s       :     3.027826  s :     3.027826
      pz      :     0.761186  p :     2.339856
      px      :     0.853445
      py      :     0.725225
      dz2     :     0.046504  d :     0.158330
      dxz     :     0.039276
      dyz     :     0.043445
      dx2y2   :     0.012571
      dxy     :     0.016534
      f0      :     0.003745  f :     0.017430
      f+1     :     0.002952
      f-1     :     0.003256
      f+2     :     0.002602
      f-2     :     0.002991
      f+3     :     0.001394
      f-3     :     0.000491
      g0      :     0.000822  g :     0.004077
      g+1     :     0.000830
      g-1     :     0.000489
      g+2     :     0.000382
      g-2     :     0.000566
      g+3     :     0.000363
      g-3     :     0.000405
      g+4     :     0.000128
      g-4     :     0.000092
  2 O s       :     3.732867  s :     3.732867
      pz      :     1.420696  p :     4.616616
      px      :     1.758899
      py      :     1.437020
      dz2     :     0.015675  d :     0.040904
      dxz     :     0.008357
      dyz     :     0.013733
      dx2y2   :     0.001602
      dxy     :     0.001537
      f0      :     0.001286  f :     0.003574
      f+1     :     0.000669
      f-1     :     0.000887
      f+2     :     0.000341
      f-2     :     0.000313
      f+3     :     0.000047
      f-3     :     0.000033
      g0      :     0.000075  g :     0.000211
      g+1     :     0.000025
      g-1     :     0.000056
      g+2     :     0.000026
      g-2     :     0.000023
      g+3     :     0.000004
      g-3     :     0.000002
      g+4     :     0.000000
      g-4     :     0.000000
  3 H s       :     0.672818  s :     0.672818
      pz      :     0.025924  p :     0.071090
      px      :     0.017715
      py      :     0.027451
      dz2     :     0.001350  d :     0.007832
      dxz     :     0.002652
      dyz     :     0.001320
      dx2y2   :     0.000490
      dxy     :     0.002019
      f0      :     0.000055  f :     0.000950
      f+1     :     0.000255
      f-1     :     0.000007
      f+2     :     0.000124
      f-2     :     0.000228
      f+3     :     0.000089
      f-3     :     0.000193
  4 H s       :     0.939513  s :     0.939513
      pz      :     0.007716  p :     0.027990
      px      :     0.012417
      py      :     0.007856
      dz2     :     0.001041  d :     0.004153
      dxz     :     0.000773
      dyz     :     0.000534
      dx2y2   :     0.000600
      dxy     :     0.001204
      f0      :     0.000010  f :     0.000081
      f+1     :     0.000006
      f-1     :     0.000008
      f+2     :    -0.000027
      f-2     :     0.000031
      f+3     :     0.000002
      f-3     :     0.000050


                     *******************************
                     * LOEWDIN POPULATION ANALYSIS *
                     *******************************

----------------------
LOEWDIN ATOMIC CHARGES
----------------------
   0 O :    0.775473
   1 C :   -0.644099
   2 O :    0.370843
   3 H :   -0.372571
   4 H :   -0.129646

-------------------------------
LOEWDIN REDUCED ORBITAL CHARGES
-------------------------------
  0 O s       :     3.068497  s :     3.068497
      pz      :     1.426564  p :     4.013824
      px      :     1.193107
      py      :     1.394153
      dz2     :     0.021300  d :     0.120342
      dxz     :     0.038242
      dyz     :     0.014400
      dx2y2   :     0.027643
      dxy     :     0.018757
      f0      :     0.002244  f :     0.021105
      f+1     :     0.005991
      f-1     :     0.001798
      f+2     :     0.003860
      f-2     :     0.003576
      f+3     :     0.001830
      f-3     :     0.001806
      g0      :     0.000018  g :     0.000759
      g+1     :     0.000125
      g-1     :     0.000037
      g+2     :     0.000062
      g-2     :     0.000141
      g+3     :     0.000105
      g-3     :     0.000108
      g+4     :     0.000042
      g-4     :     0.000121
  1 C s       :     2.695116  s :     2.695116
      pz      :     0.963426  p :     2.540380
      px      :     0.860935
      py      :     0.716019
      dz2     :     0.261118  d :     1.053089
      dxz     :     0.370016
      dyz     :     0.216706
      dx2y2   :     0.117028
      dxy     :     0.088221
      f0      :     0.049622  f :     0.307223
      f+1     :     0.091984
      f-1     :     0.051376
      f+2     :     0.033841
      f-2     :     0.039440
      f+3     :     0.024356
      f-3     :     0.016604
      g0      :     0.008542  g :     0.048291
      g+1     :     0.008255
      g-1     :     0.006226
      g+2     :     0.006997
      g-2     :     0.008778
      g+3     :     0.003799
      g-3     :     0.002478
      g+4     :     0.001788
      g-4     :     0.001428
  2 O s       :     3.301847  s :     3.301847
      pz      :     1.444272  p :     4.208598
      px      :     1.483134
      py      :     1.281191
      dz2     :     0.034002  d :     0.096300
      dxz     :     0.030700
      dyz     :     0.024517
      dx2y2   :     0.003713
      dxy     :     0.003367
      f0      :     0.005846  f :     0.021241
      f+1     :     0.006166
      f-1     :     0.005232
      f+2     :     0.001972
      f-2     :     0.001792
      f+3     :     0.000089
      f-3     :     0.000146
      g0      :     0.000268  g :     0.001171
      g+1     :     0.000255
      g-1     :     0.000275
      g+2     :     0.000180
      g-2     :     0.000154
      g+3     :     0.000015
      g-3     :     0.000023
      g+4     :     0.000000
      g-4     :     0.000001
  3 H s       :     0.701193  s :     0.701193
      pz      :     0.153693  p :     0.431105
      px      :     0.163148
      py      :     0.114264
      dz2     :     0.041822  d :     0.200522
      dxz     :     0.053823
      dyz     :     0.020929
      dx2y2   :     0.034798
      dxy     :     0.049150
      f0      :     0.002250  f :     0.039750
      f+1     :     0.012392
      f-1     :     0.000259
      f+2     :     0.005414
      f-2     :     0.007918
      f+3     :     0.004164
      f-3     :     0.007353
  4 H s       :     0.871885  s :     0.871885
      pz      :     0.059149  p :     0.186300
      px      :     0.089661
      py      :     0.037490
      dz2     :     0.012651  d :     0.063140
      dxz     :     0.018414
      dyz     :     0.005586
      dx2y2   :     0.013025
      dxy     :     0.013464
      f0      :     0.000794  f :     0.008322
      f+1     :     0.002256
      f-1     :     0.000132
      f+2     :     0.001597
      f-2     :     0.001183
      f+3     :     0.001077
      f-3     :     0.001283


                      *****************************
                      * MAYER POPULATION ANALYSIS *
                      *****************************

  NA   - Mulliken gross atomic population
  ZA   - Total nuclear charge
  QA   - Mulliken gross atomic charge
  VA   - Mayer's total valence
  BVA  - Mayer's bonded valence
  FA   - Mayer's free valence

  ATOM       NA         ZA         QA         VA         BVA        FA
  0 O      8.3339     8.0000    -0.3339     2.1954     2.1954    -0.0000
  1 C      5.5475     6.0000     0.4525     4.1838     4.1838     0.0000
  2 O      8.3942     8.0000    -0.3942     2.1842     2.1842     0.0000
  3 H      0.7527     1.0000     0.2473     1.0251     1.0251     0.0000
  4 H      0.9717     1.0000     0.0283     0.9891     0.9891    -0.0000

  Mayer bond orders larger than 0.100000
B(  0-O ,  1-C ) :   1.2113 B(  0-O ,  3-H ) :   0.9395 B(  1-C ,  2-O ) :   2.0452 
B(  1-C ,  4-H ) :   0.9172 

-------
TIMINGS
-------

Total SCF time: 0 days 0 hours 0 min 9 sec 

Total time                  ....       9.431 sec
Sum of individual times     ....       9.060 sec  ( 96.1%)

Fock matrix formation       ....       7.271 sec  ( 77.1%)
  Split-RI-J                ....       1.085 sec  ( 14.9% of F)
  Chain of spheres X        ....       3.992 sec  ( 54.9% of F)
  XC integration            ....       1.569 sec  ( 21.6% of F)
    Basis function eval.    ....       0.161 sec  ( 10.3% of XC)
    Density eval.           ....       0.349 sec  ( 22.3% of XC)
    XC-Functional eval.     ....       0.019 sec  (  1.2% of XC)
    XC-Potential eval.      ....       0.342 sec  ( 21.8% of XC)
Diagonalization             ....       0.097 sec  (  1.0%)
Density matrix formation    ....       0.015 sec  (  0.2%)
Population analysis         ....       0.028 sec  (  0.3%)
Initial guess               ....       0.077 sec  (  0.8%)
Orbital Transformation      ....       0.000 sec  (  0.0%)
Orbital Orthonormalization  ....       0.000 sec  (  0.0%)
DIIS solution               ....       1.033 sec  ( 10.9%)
SOSCF solution              ....       0.099 sec  (  1.0%)
Grid generation             ....       0.441 sec  (  4.7%)

Maximum memory used throughout the entire SCF-calculation: 66.4 MB

-------------------------   --------------------
FINAL SINGLE POINT ENERGY      -189.768102177498
-------------------------   --------------------



           ************************************************************
           *        Program running with 12 parallel MPI-processes    *
           *              working on a common directory               *
           ************************************************************
------------------------------------------------------------------------------
                         ORCA SCF GRADIENT CALCULATION
------------------------------------------------------------------------------

 ... reading COSX grid (gridx3)
Gradient of the Kohn-Sham DFT energy:
Kohn-Sham wavefunction type      ... RKS
Hartree-Fock exchange scaling    ...    0.200
Number of operators              ...    1
Number of atoms                  ...    5
Basis set dimensions             ...  225
Integral neglect threshold       ... 2.5e-11
Integral primitive cutoff        ... 2.5e-12
SHARK Integral package           ... ON

Nuc. rep. gradient       (SHARK) ... done (  0.0 sec)
HCore & Overlap gradient (SHARK) ... done (  0.0 sec)
RI-J gradient            (SHARK) ... done (  0.2 sec)
COSX-gradient                    ... done (  0.7 sec)
Exchange-correlation gradient    ... done

------------------
CARTESIAN GRADIENT
------------------

   1   O   :   -0.004134427    0.002002858    0.008572564
   2   C   :   -0.001101296    0.002822422    0.008274956
   3   O   :    0.001968154   -0.004715501   -0.013580409
   4   H   :    0.004969462   -0.000362625   -0.004896337
   5   H   :   -0.001594973    0.000305961    0.002081853

Difference to translation invariance:
           :    0.0001069210    0.0000531150    0.0004526279

Difference to rotation invariance:
           :   -0.0001856235   -0.0001757290    0.0001149602

Norm of the cartesian gradient     ...    0.0209417652
RMS gradient                       ...    0.0054071405
MAX gradient                       ...    0.0135804088

-------
TIMINGS
-------

Total SCF gradient time            ...        1.499 sec

One electron gradient       ....       0.016 sec  (  1.1%)
RI-J Coulomb gradient       ....       0.169 sec  ( 11.3%)
COSX gradient               ....       0.678 sec  ( 45.2%)
XC gradient                 ....       0.288 sec  ( 19.2%)

Maximum memory used throughout the entire SCFGRAD-calculation: 40.4 MB
------------------------------------------------------------------------------
                         ORCA GEOMETRY RELAXATION STEP
------------------------------------------------------------------------------

Reading the OPT-File                    .... done
Getting information on internals        .... done
Copying old internal coords+grads       .... done
Making the new internal coordinates     .... (new redundants).... done
Validating the new internal coordinates .... (new redundants).... done
Calculating the B-matrix                .... done
Calculating the G,G- and P matrices     .... done
Transforming gradient to internals      .... done
Projecting the internal gradient        .... done
Number of atoms                         ....   5
Number of internal coordinates          ....  10
Current Energy                          ....  -189.768102177 Eh
Current gradient norm                   ....     0.020941765 Eh/bohr
Maximum allowed component of the step   ....  0.300
Current trust radius                    ....  0.300
Evaluating the initial hessian          ....  (Almloef) done
Projecting the Hessian                  .... done
Forming the augmented Hessian           .... done
Diagonalizing the augmented Hessian     .... done
Last element of RFO vector              ....  0.999732745
Lowest eigenvalues of augmented Hessian:
 -0.000355161  0.031759650  0.031759688  0.347690367  0.367274494
Length of the computed step             ....  0.023124093
The final length of the internal step   ....  0.023124093
Converting the step to cartesian space:
 Initial RMS(Int)=    0.0073124802
Transforming coordinates:
 Iter   0:  RMS(Cart)=    0.0050189498 RMS(Int)=    1.9868462842
 Iter   1:  RMS(Cart)=    0.0000213507 RMS(Int)=    0.0000170373
 Iter   2:  RMS(Cart)=    0.0000001393 RMS(Int)=    0.0000001329
 Iter   3:  RMS(Cart)=    0.0000000006 RMS(Int)=    0.0000000007
done
Storing new coordinates                 .... done

                                .--------------------.
          ----------------------|Geometry convergence|-------------------------
          Item                value                   Tolerance       Converged
          ---------------------------------------------------------------------
          RMS gradient        0.0053744074            0.0001000000      NO
          MAX gradient        0.0145880842            0.0003000000      NO
          RMS step            0.0073124802            0.0020000000      NO
          MAX step            0.0140485846            0.0040000000      NO
          ........................................................
          Max(Bonds)      0.0074      Max(Angles)    0.47
          Max(Dihed)        0.06      Max(Improp)    0.00
          ---------------------------------------------------------------------

The optimization has not yet converged - more geometry cycles are needed


    ---------------------------------------------------------------------------
                         Redundant Internal Coordinates
                            (Angstroem and degrees)

        Definition                    Value    dE/dq     Step     New-Value
    ----------------------------------------------------------------------------
     1. B(C   1,O   0)                1.3471  0.003250 -0.0026    1.3445   
     2. B(O   2,C   1)                1.2045  0.014588 -0.0070    1.1976   
     3. B(H   3,O   0)                0.9772  0.006862 -0.0074    0.9698   
     4. B(H   4,C   1)                1.0996  0.002387 -0.0036    1.0959   
     5. A(C   1,O   0,H   3)          106.62 -0.003007    0.47    107.08   
     6. A(O   0,C   1,H   4)          109.34 -0.001541    0.23    109.57   
     7. A(O   2,C   1,H   4)          125.47  0.000564   -0.10    125.37   
     8. A(O   0,C   1,O   2)          125.19  0.000976   -0.13    125.06   
     9. D(H   4,C   1,O   0,H   3)    179.99 -0.000009    0.02    180.00   
    10. D(O   2,C   1,O   0,H   3)     -0.01  0.000034   -0.06     -0.07   
    ----------------------------------------------------------------------------

         *************************************************************
         *                GEOMETRY OPTIMIZATION CYCLE   2            *
         *************************************************************
---------------------------------
CARTESIAN COORDINATES (ANGSTROEM)
---------------------------------
  O      0.535219    0.496371    0.875804
  C     -0.402711   -0.082292    0.105705
  O     -0.233508   -0.458869   -1.018456
  H      1.348154    0.541797    0.348942
  H     -1.342959   -0.154282    0.664105

----------------------------
CARTESIAN COORDINATES (A.U.)
----------------------------
  NO LB      ZA    FRAG     MASS         X           Y           Z
   0 O     8.0000    0    15.999    1.011417    0.938006    1.655030
   1 C     6.0000    0    12.011   -0.761013   -0.155510    0.199753
   2 O     8.0000    0    15.999   -0.441266   -0.867137   -1.924604
   3 H     1.0000    0     1.008    2.547642    1.023849    0.659406
   4 H     1.0000    0     1.008   -2.537825   -0.291551    1.254977

--------------------------------
INTERNAL COORDINATES (ANGSTROEM)
--------------------------------
 O      0   0   0     0.000000000000     0.00000000     0.00000000
 C      1   0   0     1.344476195618     0.00000000     0.00000000
 O      2   1   0     1.197571695376   125.06116528     0.00000000
 H      1   2   3     0.969799031117   107.08323475   359.92586959
 H      2   1   3     1.095929329442   109.56903050   180.07497339

---------------------------
INTERNAL COORDINATES (A.U.)
---------------------------
 O      0   0   0     0.000000000000     0.00000000     0.00000000
 C      1   0   0     2.540691803295     0.00000000     0.00000000
 O      2   1   0     2.263082529996   125.06116528     0.00000000
 H      1   2   3     1.832654573753   107.08323475   359.92586959
 H      2   1   3     2.071006294777   109.56903050   180.07497339



           ************************************************************
           *        Program running with 12 parallel MPI-processes    *
           *              working on a common directory               *
           ************************************************************
------------------------------------------------------------------------------
                   ___                                                        
                  /   \      - P O W E R E D   B Y -                         
                 /     \                                                     
                 |  |  |   _    _      __       _____    __    __             
                 |  |  |  | |  | |    /  \     |  _  \  |  |  /  |          
                  \  \/   | |  | |   /    \    | | | |  |  | /  /          
                 / \  \   | |__| |  /  /\  \   | |_| |  |  |/  /          
                |  |  |   |  __  | /  /__\  \  |    /   |      \           
                |  |  |   | |  | | |   __   |  |    \   |  |\   \          
                \     /   | |  | | |  |  |  |  | |\  \  |  | \   \       
                 \___/    |_|  |_| |__|  |__|  |_| \__\ |__|  \__/        
                                                                              
                      - O R C A' S   B I G   F R I E N D -                    
                                      &                                       
                       - I N T E G R A L  F E E D E R -                       
                                                                              
 v1 FN, 2020, v2 2021                                                         
------------------------------------------------------------------------------


Reading SHARK input file CH2O2GS.SHARKINP.tmp ... ok
----------------------
SHARK INTEGRAL PACKAGE
----------------------

Number of atoms                             ...      5
Number of basis functions                   ...    246
Number of shells                            ...     86
Maximum angular momentum                    ...      4
Integral batch strategy                     ... SHARK/LIBINT Hybrid
RI-J (if used) integral strategy            ... SPLIT-RIJ (Revised 2003 algorithm where possible)
Printlevel                                  ...      1
Contraction scheme used                     ... PARTIAL GENERAL contraction
Coulomb Range Separation                    ... NOT USED
Exchange Range Separation                   ... NOT USED
Finite Nucleus Model                        ... NOT USED
Auxiliary Coulomb fitting basis             ... AVAILABLE
   # of basis functions in Aux-J            ...    169
   # of shells in Aux-J                     ...     55
   Maximum angular momentum in Aux-J        ...      4
Auxiliary J/K fitting basis                 ... NOT available
Auxiliary Correlation fitting basis         ... NOT available
Auxiliary 'external' fitting basis          ... NOT available
Integral threshold                          ...     2.500000e-11
Primitive cut-off                           ...     2.500000e-12
Primitive pair pre-selection threshold      ...     2.500000e-12

Calculating pre-screening integrals         ... done (  0.0 sec) Dimension = 86
Calculating pre-screening integrals (ORCA)  ... done (  0.1 sec) Dimension = 65
Organizing shell pair data                  ... done (  0.1 sec)
Shell pair information
Total number of shell pairs                 ...      3741
Shell pairs after pre-screening             ...      3354
Total number of primitive shell pairs       ...      4671
Primitive shell pairs kept                  ...      3998
          la=0 lb=0:    734 shell pairs
          la=1 lb=0:    730 shell pairs
          la=1 lb=1:    169 shell pairs
          la=2 lb=0:    534 shell pairs
          la=2 lb=1:    232 shell pairs
          la=2 lb=2:     90 shell pairs
          la=3 lb=0:    336 shell pairs
          la=3 lb=1:    144 shell pairs
          la=3 lb=2:    104 shell pairs
          la=3 lb=3:     36 shell pairs
          la=4 lb=0:    122 shell pairs
          la=4 lb=1:     54 shell pairs
          la=4 lb=2:     39 shell pairs
          la=4 lb=3:     24 shell pairs
          la=4 lb=4:      6 shell pairs

Calculating one electron integrals          ... done (  0.0 sec)
Calculating RI/J V-Matrix + Cholesky decomp.... done (  0.0 sec)
Calculating Nuclear repulsion               ... done (  0.0 sec) ENN=     70.277940308314 Eh

SHARK setup successfully completed in   0.3 seconds

Maximum memory used throughout the entire GTOINT-calculation: 31.7 MB


           ************************************************************
           *        Program running with 12 parallel MPI-processes    *
           *              working on a common directory               *
           ************************************************************

Diagonalization of the overlap matrix:
Smallest eigenvalue                        ... 2.466e-04
Time for diagonalization                   ...    0.005 sec
Threshold for overlap eigenvalues          ... 1.000e-08
Number of eigenvalues below threshold      ... 0
Time for construction of square roots      ...    0.005 sec
Total time needed                          ...    0.011 sec

-------------------
DFT GRID GENERATION
-------------------

General Integration Accuracy     IntAcc      ... 4.388
Radial Grid Type                 RadialGrid  ... OptM3 with GC (2021)
Angular Grid (max. ang.)         AngularGrid ... 4 (Lebedev-302)
Angular grid pruning method      GridPruning ... 4 (adaptive)
Weight generation scheme         WeightScheme... Becke
Basis function cutoff            BFCut       ... 1.0000e-11
Integration weight cutoff        WCut        ... 1.0000e-14
Angular grids for H and He will be reduced by one unit
Partially contracted basis set               ... off
Rotationally invariant grid construction     ... off

Total number of grid points                  ...    24919
Total number of batches                      ...      392
Average number of points per batch           ...       63
Average number of grid points per atom       ...     4984
Time for grid setup =    0.122 sec

--------------------
COSX GRID GENERATION
--------------------

GRIDX 1
-------
General Integration Accuracy     IntAcc      ... 3.816
Radial Grid Type                 RadialGrid  ... OptM3 with GC (2021)
Angular Grid (max. ang.)         AngularGrid ... 1 (Lebedev-50)
Angular grid pruning method      GridPruning ... 4 (adaptive)
Weight generation scheme         WeightScheme... Becke
Basis function cutoff            BFCut       ... 1.0000e-11
Integration weight cutoff        WCut        ... 1.0000e-14
Angular grids for H and He will be reduced by one unit
Partially contracted basis set               ... on
Rotationally invariant grid construction     ... off

Total number of grid points                  ...     3191
Total number of batches                      ...       53
Average number of points per batch           ...       60
Average number of grid points per atom       ...      638
UseSFitting                                  ... on

GRIDX 2
-------
General Integration Accuracy     IntAcc      ... 4.020
Radial Grid Type                 RadialGrid  ... OptM3 with GC (2021)
Angular Grid (max. ang.)         AngularGrid ... 2 (Lebedev-110)
Angular grid pruning method      GridPruning ... 4 (adaptive)
Weight generation scheme         WeightScheme... Becke
Basis function cutoff            BFCut       ... 1.0000e-11
Integration weight cutoff        WCut        ... 1.0000e-14
Angular grids for H and He will be reduced by one unit
Partially contracted basis set               ... on
Rotationally invariant grid construction     ... off

Total number of grid points                  ...     7223
Total number of batches                      ...      115
Average number of points per batch           ...       62
Average number of grid points per atom       ...     1445
UseSFitting                                  ... on

GRIDX 3
-------
General Integration Accuracy     IntAcc      ... 4.338
Radial Grid Type                 RadialGrid  ... OptM3 with GC (2021)
Angular Grid (max. ang.)         AngularGrid ... 3 (Lebedev-194)
Angular grid pruning method      GridPruning ... 4 (adaptive)
Weight generation scheme         WeightScheme... Becke
Basis function cutoff            BFCut       ... 1.0000e-11
Integration weight cutoff        WCut        ... 1.0000e-14
Angular grids for H and He will be reduced by one unit
Partially contracted basis set               ... on
Rotationally invariant grid construction     ... off

Total number of grid points                  ...    16014
Total number of batches                      ...      252
Average number of points per batch           ...       63
Average number of grid points per atom       ...     3203
UseSFitting                                  ... on

Time for X-Grid setup             =    0.157 sec

 re-compute Schwartz prescreening matrix in partically contracted basis (1) ...done (   0.072 sec)
--------------
SCF ITERATIONS
--------------
ITER       Energy         Delta-E        Max-DP      RMS-DP      [F,P]     Damp
               ***  Starting incremental Fock matrix formation  ***
                      *** Initiating the SOSCF procedure ***
                      *** Re-Reading the Fockian *** 
                      *** Removing any level shift *** 
ITER      Energy       Delta-E        Grad      Rot      Max-DP    RMS-DP
  0   -189.76825244 -189.7682524422  0.001359  0.001359  0.002176  0.000038
               *** Restarting incremental Fock matrix formation ***
  1   -189.76830614  -0.0000536988  0.000446  0.000721  0.001329  0.000029
  2   -189.76830610   0.0000000379  0.000718  0.000690  0.000542  0.000013
  3   -189.76831148  -0.0000053779  0.000196  0.000423  0.000326  0.000006
  4   -189.76831112   0.0000003577  0.000275  0.000289  0.000153  0.000004
  5   -189.76831186  -0.0000007413  0.000042  0.000097  0.000141  0.000002
  6   -189.76831184   0.0000000215  0.000058  0.000057  0.000087  0.000001
                  ***Gradient check signals convergence***
              ***Rediagonalizing the Fockian in SOSCF/NRSCF***

               *****************************************************
               *                     SUCCESS                       *
               *           SCF CONVERGED AFTER   7 CYCLES          *
               *****************************************************

Old exchange energy                            =     -4.463739314 Eh
New exchange energy                            =     -4.463738903 Eh
Exchange energy change after final integration =      0.000000411 Eh
Total energy after final integration           =   -189.768311491 Eh
Final COS-X integration done in                =     0.546 sec
Total Energy       :         -189.76831149 Eh           -5163.85828 eV
  Last Energy change         ...   -5.8762e-08  Tolerance :   1.0000e-08
  Last MAX-Density change    ...    3.9968e-15  Tolerance :   1.0000e-07
             **** THE GBW FILE WAS UPDATED (CH2O2GS.gbw) ****
             **** DENSITY CH2O2GS.scfp WAS UPDATED ****
             **** ENERGY FILE WAS UPDATED (CH2O2GS.en.tmp) ****
             **** THE GBW FILE WAS UPDATED (CH2O2GS.gbw) ****
             **** DENSITY CH2O2GS.scfp WAS UPDATED ****
Total SCF time: 0 days 0 hours 0 min 4 sec 

Maximum memory used throughout the entire SCF-calculation: 66.8 MB

-------------------------   --------------------
FINAL SINGLE POINT ENERGY      -189.768311490607
-------------------------   --------------------



           ************************************************************
           *        Program running with 12 parallel MPI-processes    *
           *              working on a common directory               *
           ************************************************************
------------------------------------------------------------------------------
                         ORCA SCF GRADIENT CALCULATION
------------------------------------------------------------------------------

 ... reading COSX grid (gridx3)
Gradient of the Kohn-Sham DFT energy:
Kohn-Sham wavefunction type      ... RKS
Hartree-Fock exchange scaling    ...    0.200
Number of operators              ...    1
Number of atoms                  ...    5
Basis set dimensions             ...  225
Integral neglect threshold       ... 2.5e-11
Integral primitive cutoff        ... 2.5e-12
SHARK Integral package           ... ON

Nuc. rep. gradient       (SHARK) ... done (  0.0 sec)
HCore & Overlap gradient (SHARK) ... done (  0.0 sec)
RI-J gradient            (SHARK) ... done (  0.2 sec)
COSX-gradient                    ... done (  0.7 sec)
Exchange-correlation gradient    ... done

------------------
CARTESIAN GRADIENT
------------------

   1   O   :   -0.000214506    0.000723391    0.001914944
   2   C   :   -0.000445520    0.000259537    0.001535555
   3   O   :    0.000695788   -0.000730961   -0.002331779
   4   H   :   -0.000212276   -0.000447493   -0.000967465
   5   H   :    0.000267949    0.000250098    0.000293005

Difference to translation invariance:
           :    0.0000914345    0.0000545728    0.0004442604

Difference to rotation invariance:
           :   -0.0001712312   -0.0001756456    0.0001126575

Norm of the cartesian gradient     ...    0.0038363016
RMS gradient                       ...    0.0009905288
MAX gradient                       ...    0.0023317791

-------
TIMINGS
-------

Total SCF gradient time            ...        1.712 sec

One electron gradient       ....       0.042 sec  (  2.5%)
RI-J Coulomb gradient       ....       0.161 sec  (  9.4%)
COSX gradient               ....       0.660 sec  ( 38.6%)
XC gradient                 ....       0.293 sec  ( 17.1%)

Maximum memory used throughout the entire SCFGRAD-calculation: 40.5 MB
------------------------------------------------------------------------------
                         ORCA GEOMETRY RELAXATION STEP
------------------------------------------------------------------------------

Reading the OPT-File                    .... done
Getting information on internals        .... done
Copying old internal coords+grads       .... done
Making the new internal coordinates     .... (new redundants).... done
Validating the new internal coordinates .... (new redundants).... done
Calculating the B-matrix                .... done
Calculating the G,G- and P matrices     .... done
Transforming gradient to internals      .... done
Projecting the internal gradient        .... done
Number of atoms                         ....   5
Number of internal coordinates          ....  10
Current Energy                          ....  -189.768311491 Eh
Current gradient norm                   ....     0.003836302 Eh/bohr
Maximum allowed component of the step   ....  0.300
Current trust radius                    ....  0.300
Updating the Hessian (BFGS)             .... done
[...]
  1 C      5.5480     6.0000     0.4520     4.1889     4.1889     0.0000
  2 O      8.3886     8.0000    -0.3886     2.1881     2.1881    -0.0000
  3 H      0.7569     1.0000     0.2431     1.0279     1.0279     0.0000
  4 H      0.9745     1.0000     0.0255     0.9891     0.9891    -0.0000

  Mayer bond orders larger than 0.100000
B(  0-O ,  1-C ) :   1.2087 B(  0-O ,  3-H ) :   0.9431 B(  1-C ,  2-O ) :   2.0525 
B(  1-C ,  4-H ) :   0.9177 

-------
TIMINGS
-------

Total SCF time: 0 days 0 hours 0 min 3 sec 

Total time                  ....       3.344 sec
Sum of individual times     ....       3.098 sec  ( 92.6%)

Fock matrix formation       ....       2.723 sec  ( 81.4%)
  Split-RI-J                ....       0.340 sec  ( 12.5% of F)
  Chain of spheres X        ....       1.901 sec  ( 69.8% of F)
  XC integration            ....       0.447 sec  ( 16.4% of F)
    Basis function eval.    ....       0.081 sec  ( 18.2% of XC)
    Density eval.           ....       0.129 sec  ( 28.8% of XC)
    XC-Functional eval.     ....       0.009 sec  (  2.0% of XC)
    XC-Potential eval.      ....       0.106 sec  ( 23.8% of XC)
Diagonalization             ....       0.009 sec  (  0.3%)
Density matrix formation    ....       0.005 sec  (  0.2%)
Population analysis         ....       0.038 sec  (  1.1%)
Initial guess               ....       0.017 sec  (  0.5%)
Orbital Transformation      ....       0.000 sec  (  0.0%)
Orbital Orthonormalization  ....       0.011 sec  (  0.3%)
DIIS solution               ....       0.004 sec  (  0.1%)
SOSCF solution              ....       0.048 sec  (  1.4%)
Grid generation             ....       0.254 sec  (  7.6%)

Maximum memory used throughout the entire SCF-calculation: 66.7 MB

-------------------------   --------------------
FINAL SINGLE POINT ENERGY      -189.768328839966
-------------------------   --------------------

                                *** OPTIMIZATION RUN DONE ***

                            ***************************************
                            *     ORCA property calculations      *
                            ***************************************

                                    ---------------------
                                    Active property flags
                                    ---------------------
   (+) Dipole Moment


------------------------------------------------------------------------------
                       ORCA ELECTRIC PROPERTIES CALCULATION
------------------------------------------------------------------------------

Dipole Moment Calculation                       ... on
Quadrupole Moment Calculation                   ... off
Polarizability Calculation                      ... off
GBWName                                         ... CH2O2GS.gbw
Electron density                                ... CH2O2GS.scfp
The origin for moment calculation is the CENTER OF MASS  = (-0.003045, -0.001755 -0.002425)

-------------
DIPOLE MOMENT
-------------
                                X             Y             Z
Electronic contribution:      0.16171      -0.11718      -0.43639
Nuclear contribution   :      0.01681       0.36875       0.95533
                        -----------------------------------------
Total Dipole Moment    :      0.17852       0.25157       0.51893
                        -----------------------------------------
Magnitude (a.u.)       :      0.60370
Magnitude (Debye)      :      1.53448



--------------------
Rotational spectrum 
--------------------
 
Rotational constants in cm-1:     2.607852     0.402760     0.348879 
Rotational constants in MHz : 78181.432277 12074.439439 10459.119844 

 Dipole components along the rotational axes: 
x,y,z [a.u.] :     0.600985    -0.057158    -0.000363 
x,y,z [Debye]:     1.527584    -0.145283    -0.000922 

 


           ************************************************************
           *        Program running with 12 parallel MPI-processes    *
           *              working on a common directory               *
           ************************************************************

-------------------------------------------------------------------------------
                               ORCA SCF HESSIAN
-------------------------------------------------------------------------------

                   --------- SHARK INITIALIZATION DONE ---------

Hessian of the Kohn-Sham DFT energy:
Kohn-Sham wavefunction type                      ... RKS
Hartree-Fock exchange scaling                    ...    0.200
Number of operators                              ...    1
Number of atoms                                  ...    5
Basis set dimensions                             ...  225
Integral neglect threshold                       ... 2.5e-11
Integral primitive cutoff                        ... 2.5e-12

Setting up DFT Hessian calculations              ... 

HESS GRID
---------

General Integration Accuracy     IntAcc      ... 4.629
Radial Grid Type                 RadialGrid  ... OptM3 with GC (2021)
Angular Grid (max. ang.)         AngularGrid ... 5 (Lebedev-434)
Angular grid pruning method      GridPruning ... 4 (adaptive)
Weight generation scheme         WeightScheme... Becke
Basis function cutoff            BFCut       ... 1.0000e-11
Integration weight cutoff        WCut        ... 1.0000e-14
Angular grids for H and He will be reduced by one unit
Partially contracted basis set               ... off
Rotationally invariant grid construction     ... off

Total number of grid points                  ...    38982
Total number of batches                      ...      612
Average number of points per batch           ...       63
Average number of grid points per atom       ...     7796

Building densities                               ... done   (      0.0 sec)
Calculating rho(r) on the grid                   ... done   (      0.1 sec)
Building xc-kernel on the grid                   ... done   (      0.0 sec)
                                                     done   (      0.4 sec)

Nuclear repulsion Hessian  (SHARK)               ... done   (      0.0 sec)

----------------------------------------------
Forming right-hand sides of CP-SCF equations     ...
----------------------------------------------
One electron integral derivatives  (SHARK)       ... done   (      0.0 sec)
Transforming the overlap derivative matrices     ... done   (      0.0 sec)
Making the Q(x) pseudodensities                  ... done   (      0.0 sec)
Adding the E*S(x)*S(y) terms to the Hessian      ... done   (      0.0 sec)
Calculating energy weighted overlap derivatives  ... done   (      0.0 sec)
Two electron integral derivatives (SHARK-RI)     ... done   (     14.1 sec)
Exchange-correlation integral derivatives        ... done   (      4.9 sec)
tr(F(y)Q(x)) contribution to the Hessian         ... done   (      0.0 sec)
Response fock operator R(S(x)) (SHARK-RIJCOSX)   ... done   (      1.7 sec)
XC Response fock operator R(S(x))                ... done   (      1.0 sec)
tr(F(y)S(x)) contribution to the Hessian         ... done   (      0.0 sec)
Transforming and finalizing RHSs                 ... done   (      0.0 sec)

----------------------------------------------
Solving the CP-SCF equations (RIJCOSX)           ...
----------------------------------------------
     CP-SCF ITERATION   0:   8.1108e-01 (   0.6 sec   0/ 15 done)
     CP-SCF ITERATION   1:   4.8733e-02 (   0.7 sec   0/ 15 done)
     CP-SCF ITERATION   2:   1.2059e-02 (   0.7 sec   0/ 15 done)
     CP-SCF ITERATION   3:   3.5068e-03 (   0.7 sec   0/ 15 done)
     CP-SCF ITERATION   4:   1.0532e-03 (   0.6 sec   0/ 15 done)
     CP-SCF ITERATION   5:   2.7278e-04 (   0.7 sec   5/ 15 done)
     CP-SCF ITERATION   6:   5.9395e-05 (   0.5 sec  15/ 15 done)
                    *** THE CP-SCF HAS CONVERGED ***

                                                 ... done   (      4.7 sec)
Forming perturbed density Hessian contributions  ... done   (      0.0 sec)
2nd integral derivative contribs (SHARK-RI)      ... done   (     46.0 sec)
Exchange-correlation Hessian                     ... done   (      2.3 sec)
Dipole derivatives                               ... (center of mass: -0.003045, -0.001755 -0.002425)done   (      0.1 sec)

Total SCF Hessian time: 0 days 0 hours 1 min 15 sec 

Writing the Hessian file to the disk             ... done


Maximum memory used throughout the entire SCFHESS-calculation: 160.7 MB

-----------------------
VIBRATIONAL FREQUENCIES
-----------------------

Scaling factor for frequencies =  0.980000000  (already applied!)

   0:         0.00 cm**-1
   1:         0.00 cm**-1
   2:         0.00 cm**-1
   3:         0.00 cm**-1
   4:         0.00 cm**-1
   5:         0.00 cm**-1
   6:       618.10 cm**-1
   7:       663.23 cm**-1
   8:      1033.41 cm**-1
   9:      1099.15 cm**-1
  10:      1275.32 cm**-1
  11:      1376.92 cm**-1
  12:      1780.98 cm**-1
  13:      2978.69 cm**-1
  14:      3646.39 cm**-1


------------
NORMAL MODES
------------

These modes are the Cartesian displacements weighted by the diagonal matrix
M(i,i)=1/sqrt(m[i]) where m[i] is the mass of the displaced atom
Thus, these vectors are normalized but *not* orthogonal

                  0          1          2          3          4          5    
      0       0.000000   0.000000   0.000000   0.000000   0.000000   0.000000
      1       0.000000   0.000000   0.000000   0.000000   0.000000   0.000000
      2       0.000000   0.000000   0.000000   0.000000   0.000000   0.000000
      3       0.000000   0.000000   0.000000   0.000000   0.000000   0.000000
      4       0.000000   0.000000   0.000000   0.000000   0.000000   0.000000
      5       0.000000   0.000000   0.000000   0.000000   0.000000   0.000000
      6       0.000000   0.000000   0.000000   0.000000   0.000000   0.000000
      7       0.000000   0.000000   0.000000   0.000000   0.000000   0.000000
      8       0.000000   0.000000   0.000000   0.000000   0.000000   0.000000
      9       0.000000   0.000000   0.000000   0.000000   0.000000   0.000000
     10       0.000000   0.000000   0.000000   0.000000   0.000000   0.000000
     11       0.000000   0.000000   0.000000   0.000000   0.000000   0.000000
     12       0.000000   0.000000   0.000000   0.000000   0.000000   0.000000
     13       0.000000   0.000000   0.000000   0.000000   0.000000   0.000000
     14       0.000000   0.000000   0.000000   0.000000   0.000000   0.000000
                  6          7          8          9         10         11    
      0       0.016427   0.025642   0.009885  -0.201771   0.081409   0.026735
      1       0.082672  -0.084377  -0.032291  -0.140454   0.006322  -0.005337
      2       0.202384   0.032653   0.012407  -0.207682  -0.048109  -0.035236
      3       0.193973  -0.023146  -0.058806   0.230311  -0.206303   0.026351
      4       0.010113   0.077711   0.193460   0.093459  -0.076516   0.010601
      5      -0.126663  -0.029845  -0.073776   0.061236  -0.036605   0.006725
      6      -0.197304   0.011748   0.015494  -0.010190   0.046603  -0.031921
      7      -0.116945  -0.040246  -0.051021   0.036415   0.019960   0.015736
      8      -0.150405   0.014939   0.019404   0.103768   0.015285   0.066731
      9       0.322317  -0.263965   0.034479   0.272071   0.475857   0.152095
     10       0.367566   0.873252  -0.114508   0.318710   0.403606   0.120285
     11       0.723198  -0.331625   0.043228   0.619913   0.678980   0.194175
     12       0.237249  -0.053683   0.263419   0.347874  -0.049412  -0.383773
     13       0.055922   0.178787  -0.868367   0.218971   0.090989  -0.411641
     14      -0.038929  -0.068137   0.330963   0.299746   0.278184  -0.774215
                 12         13         14    
      0      -0.003111  -0.000614   0.052135
      1       0.019877   0.000309   0.003840
      2       0.054586   0.001298  -0.031356
      3       0.064220   0.073446   0.003967
      4      -0.206666   0.004663   0.000747
      5      -0.593356  -0.046236  -0.001196
      6      -0.063710  -0.001050  -0.000389
      7       0.134895   0.000992  -0.000353
      8       0.404710   0.003438  -0.000618
      9      -0.190719   0.013025  -0.854300
     10      -0.164929  -0.002949  -0.063642
     11      -0.280818  -0.018103   0.511944
     12       0.486074  -0.861776  -0.014296
     13       0.170957  -0.073272  -0.000612
     14       0.061111   0.493859   0.009800


-----------
IR SPECTRUM
-----------

 Mode   freq       eps      Int      T**2         TX        TY        TZ
       cm**-1   L/(mol*cm) km/mol    a.u.
----------------------------------------------------------------------------
  6:    618.10   0.008290   41.89  0.004185  ( 0.060673  0.021006  0.007928)
  7:    663.23   0.026771  135.29  0.012596  (-0.030380  0.100983 -0.038416)
  8:   1033.41   0.000302    1.52  0.000091  ( 0.002546 -0.008615  0.003224)
  9:   1099.15   0.049813  251.73  0.014142  ( 0.084852  0.050894  0.065973)
 10:   1275.32   0.001611    8.14  0.000394  (-0.018622 -0.006492 -0.002273)
 11:   1376.92   0.000478    2.42  0.000108  ( 0.009597  0.001473 -0.003758)
 12:   1780.98   0.068460  345.97  0.011996  (-0.020862 -0.043769 -0.098207)
 13:   2978.69   0.008467   42.79  0.000887  ( 0.023993  0.000540 -0.017638)
 14:   3646.39   0.011401   57.62  0.000976  (-0.029757 -0.006316  0.007096)

* The epsilon (eps) is given for a Dirac delta lineshape.
** The dipole moment derivative (T) already includes vibrational overlap.

The first frequency considered to be a vibration is 6
The total number of vibrations considered is 9


--------------------------
THERMOCHEMISTRY AT 298.15K
--------------------------

Temperature         ... 298.15 K
Pressure            ... 1.00 atm
Total Mass          ... 46.02 AMU

Throughout the following assumptions are being made:
  (1) The electronic state is orbitally nondegenerate
  (2) There are no thermally accessible electronically excited states
  (3) Hindered rotations indicated by low frequency modes are not
      treated as such but are treated as vibrations and this may
      cause some error
  (4) All equations used are the standard statistical mechanics
      equations for an ideal gas
  (5) All vibrations are strictly harmonic

freq.     618.10  E(vib)   ...       0.09 
freq.     663.23  E(vib)   ...       0.08 
freq.    1033.41  E(vib)   ...       0.02 
freq.    1099.15  E(vib)   ...       0.02 
freq.    1275.32  E(vib)   ...       0.01 
freq.    1376.92  E(vib)   ...       0.01 
freq.    1780.98  E(vib)   ...       0.00 
freq.    2978.69  E(vib)   ...       0.00 
freq.    3646.39  E(vib)   ...       0.00 

------------
INNER ENERGY
------------

The inner energy is: U= E(el) + E(ZPE) + E(vib) + E(rot) + E(trans)
    E(el)   - is the total energy from the electronic structure calculation
              = E(kin-el) + E(nuc-el) + E(el-el) + E(nuc-nuc)
    E(ZPE)  - the the zero temperature vibrational energy from the frequency calculation
    E(vib)  - the the finite temperature correction to E(ZPE) due to population
              of excited vibrational states
    E(rot)  - is the rotational thermal energy
    E(trans)- is the translational thermal energy

Summary of contributions to the inner energy U:
Electronic energy                ...   -189.76832884 Eh
Zero point energy                ...      0.03297005 Eh      20.69 kcal/mol
Thermal vibrational correction   ...      0.00035808 Eh       0.22 kcal/mol
Thermal rotational correction    ...      0.00141627 Eh       0.89 kcal/mol
Thermal translational correction ...      0.00141627 Eh       0.89 kcal/mol
-----------------------------------------------------------------------
Total thermal energy                   -189.73216816 Eh


Summary of corrections to the electronic energy:
(perhaps to be used in another calculation)
Total thermal correction                  0.00319062 Eh       2.00 kcal/mol
Non-thermal (ZPE) correction              0.03297005 Eh      20.69 kcal/mol
-----------------------------------------------------------------------
Total correction                          0.03616068 Eh      22.69 kcal/mol


--------
ENTHALPY
--------

The enthalpy is H = U + kB*T
                kB is Boltzmann's constant
Total free energy                 ...   -189.73216816 Eh 
Thermal Enthalpy correction       ...      0.00094421 Eh       0.59 kcal/mol
-----------------------------------------------------------------------
Total Enthalpy                    ...   -189.73122395 Eh


Note: Only C1 symmetry has been detected, increase convergence thresholds 
      if your molecule has a higher symmetry. Symmetry factor of 1.0 is   
      used for the rotational entropy correction. 
 

Note: Rotational entropy computed according to Herzberg 
Infrared and Raman Spectra, Chapter V,1, Van Nostrand Reinhold, 1945 
Point Group:  C1, Symmetry Number:   1  
Rotational constants in cm-1:     2.607852     0.402760     0.348879 

Vibrational entropy computed according to the QRRHO of S. Grimme
Chem.Eur.J. 2012 18 9955


-------
ENTROPY
-------

The entropy contributions are T*S = T*(S(el)+S(vib)+S(rot)+S(trans))
     S(el)   - electronic entropy
     S(vib)  - vibrational entropy
     S(rot)  - rotational entropy
     S(trans)- translational entropy
The entropies will be listed as multiplied by the temperature to get
units of energy

Electronic entropy                ...      0.00000000 Eh      0.00 kcal/mol
Vibrational entropy               ...      0.00046141 Eh      0.29 kcal/mol
Rotational entropy                ...      0.00998475 Eh      6.27 kcal/mol
Translational entropy             ...      0.01777224 Eh     11.15 kcal/mol
-----------------------------------------------------------------------
Final entropy term                ...      0.02821840 Eh     17.71 kcal/mol

In case the symmetry of your molecule has not been determined correctly
or in case you have a reason to use a different symmetry number we print 
out the resulting rotational entropy values for sn=1,12 :
 --------------------------------------------------------
|  sn= 1 | S(rot)=       0.00998475 Eh      6.27 kcal/mol|
|  sn= 2 | S(rot)=       0.00933029 Eh      5.85 kcal/mol|
|  sn= 3 | S(rot)=       0.00894746 Eh      5.61 kcal/mol|
|  sn= 4 | S(rot)=       0.00867584 Eh      5.44 kcal/mol|
|  sn= 5 | S(rot)=       0.00846515 Eh      5.31 kcal/mol|
|  sn= 6 | S(rot)=       0.00829301 Eh      5.20 kcal/mol|
|  sn= 7 | S(rot)=       0.00814746 Eh      5.11 kcal/mol|
|  sn= 8 | S(rot)=       0.00802138 Eh      5.03 kcal/mol|
|  sn= 9 | S(rot)=       0.00791017 Eh      4.96 kcal/mol|
|  sn=10 | S(rot)=       0.00781069 Eh      4.90 kcal/mol|
|  sn=11 | S(rot)=       0.00772070 Eh      4.84 kcal/mol|
|  sn=12 | S(rot)=       0.00763855 Eh      4.79 kcal/mol|
 --------------------------------------------------------


-------------------
GIBBS FREE ENERGY
-------------------

The Gibbs free energy is G = H - T*S

Total enthalpy                    ...   -189.73122395 Eh 
Total entropy correction          ...     -0.02821840 Eh    -17.71 kcal/mol
-----------------------------------------------------------------------
Final Gibbs free energy         ...   -189.75944236 Eh

For completeness - the Gibbs free energy minus the electronic energy
G-E(el)                           ...      0.00888648 Eh      5.58 kcal/mol


Timings for individual modules:

Sum of individual times         ...      122.749 sec (=   2.046 min)
GTO integral calculation        ...        3.495 sec (=   0.058 min)   2.8 %
SCF iterations                  ...       34.021 sec (=   0.567 min)  27.7 %
SCF Gradient evaluation         ...        9.112 sec (=   0.152 min)   7.4 %
Geometry relaxation             ...        0.067 sec (=   0.001 min)   0.1 %
Analytical frequency calculation...       76.054 sec (=   1.268 min)  62.0 %
                             ****ORCA TERMINATED NORMALLY****
TOTAL RUN TIME: 0 days 0 hours 2 minutes 4 seconds 65 msec
