1 : CH2O2_GS.inp
2 : 00
3 : 12
----- GAMESS execution script 'rungms' -----
This job is running on host g-MS-7C94
under operating system Linux at 2022年 04月 10日 星期日 22:07:18 CST
Available scratch disk space (Kbyte units) at beginning of the job is
文件系统           1K-块      已用      可用 已用% 挂载点
/dev/nvme0n1p2 959863856 303834896 607200752   34% /
GAMESS temporary binary files will be written to /home/g/gamess/restart
GAMESS supplementary output files will be written to /home/g/gamess/restart
Copying input file ./CH2O2_GS.inp to your run's scratch directory...
 
Assuming a single but multicore node.
 

 Distributed Data Interface kickoff program.
 Initiating 12 compute processes on 1 nodes to run the following command:
 /home/g/opt/gamess/gamess.00.x CH2O2_GS 

          *******************************************************
          *                                                     *
          *      GAMESS VERSION = 30 SEP 2021 (R2 Patch 1)      *
          *                                                     *
          *              doi.org/10.1063/5.0005188              *
          *                                                     *
          **************** 64 BIT LINUX VERSION *****************

  GAMESS HAS BEEN MADE POSSIBLE WITH IMPORTANT CONTRIBUTIONS FROM
  THE FOLLOWING INDIVIDUALS (IN ALPHABETICAL ORDER):

     IVANA ADAMOVIC, CHRISTINE AIKENS, TOMOKO AKAMA,
     YURI ALEXEEV, YURIKO AOKI, POOJA ARORA, TOSHIO ASADA,
     ANDREY ASADCHEV, KIM K. BALDRIDGE, PRADIPTA BANDYOPADHYAY,
     TAYLOR A. BARNES, MARIA BARYSZ, ROB BELL,
     JONATHAN BENTZ, COLLEEN BERTONI,
     JERRY A. BOATZ, BRETT BODE, KURT BRORSEN, KURT R. BRORSEN,
     LAIMUTIS BYTAUTAS, CALEB CARLIN, LAURA CARRINGTON,
     GALINA CHABAN, BENOIT CHAMPAGNE, WEI CHEN, MAHITO CHIBA,
     DAN CHIPMAN, CHEOL HO CHOI, TANNER CULPITT,
     DIPAYAN DATTA, PAUL DAY, ALBERT DEFUSCO,
     NUWAN DESILVA, J. EMILIANO DEUSTUA,
     TIM DUDLEY, MICHEL DUPUIS, STEVEN T. ELBERT,
     DMITRI FEDOROV, ALEX FINDLATER, GRAHAM FLETCHER,
     MARK FREITAG, CHRISTIAN FRIEDL, DAVID GARMER,
     IGOR S. GERASIMOV, KURT GLAESEMANN, MARK S. GORDON,
     JEFFREY GOUR, FENG LONG GU, EMILIE B. GUIDEZ,
     ANASTASIA GUNINA, SHARON HAMMES-SCHIFFER, MASATAKE HARUTA,
     KIMIHIKO HIRAO, YASUHIRO IKABATA, TZVETELIN IORDANOV,
     STEPHAN IRLE, KAZUYA ISHIMURA, JOE IVANIC, FRANK JENSEN,
     JAN H. JENSEN, VISVALDAS KAIRYS, MUNEAKI KAMIYA,
     MICHIO KATOUDA, NAOAKI KAWAKAMI, DAN KEMP, BERNARD KIRTMAN,
     KAZUO KITAURA, MARIUSZ KLOBUKOWSKI, MASATO KOBAYASHI,
     PRAKASHAN KORAMBATH, JACEK KORCHOWIEC, SHIRO KOSEKI,
     KAROL KOWALSKI, JIMMY KROMANN, STANISLAW KUCHARSKI,
     HENRY KURTZ, SAROM SOK LEANG, HUI LI, SHUHUA LI, WEI LI,
     JESSE LUTZ, ALEKSANDR O. LYKHIN, MARCIN MAKOWSKI,
     JOANI MATO, NIKITA MATSUNAGA, BENEDETTA MENNUCCI,
     GRANT MERRILL, NORIYUKI MINEZAWA, VLADIMIR MIRONOV,
     EISAKU MIYOSHI, JOHN A. MONTGOMERY JR., HIROTOSHI MORI,
     JONATHAN MULLIN, MONIKA MUSIAL, SHIGERU NAGASE,
     TAKESHI NAGATA, HIROMI NAKAI, TAKAHITO NAKAJIMA,
     YUYA NAKAJIMA, HARUYUKI NAKANO, HIROYA NAKATA, SEAN NEDD,
     HEATHER NETZLOFF, KIET A. NGUYEN, YOSHIO NISHIMOTO,
     BOSILJKA NJEGIC, RYAN OLSON, MIKE PAK, ROBERTO PEVERATI,
     BUU PHAM, PIOTR PIECUCH, ANNA POMOGAEVA, DAVID POOLE,
     SPENCER PRUITT, OLIVIER QUINET, LUKE ROSKOP,
     KLAUS RUEDENBERG, ANDREW SAND, TOSAPORN SATTASATHUCHANA,
     NOZOMI SAWADA, MICHAEL W. SCHMIDT, PATRICK E. SCHNEIDER,
     JUNJI SEINO, PRACHI SHARMA, JUN SHEN, JIM SHOEMAKER,
     YINAN SHU, DEJUN SI, JONATHAN SKONE, LYUDMILA SLIPCHENKO,
     TONY SMITH, JIE SONG, MARK SPACKMAN, CASPER STEINMANN,
     WALT STEVENS, PEIFENG SU, SHUJUN SU, CHET SWALINA,
     TETSUYA TAKETSUGU, ZHEN TAO, NANDUN THELLAMUREGE
     SEIKEN TOKURA, JACOPO TOMASI, TSUGUKI TOUMA, TAKAO TSUNEDA,
     HIROAKI UMEDA, JORGE LUIS GALVEZ VALLEJO, YALI WANG,
     SIMON WEBB, AARON WEST, THERESA L. WINDUS, MARTA WLOCH,
     PENG XU, KIYOSHI YAGI, SUSUMU YANAGISAWA, YANG YANG,
     SOOHAENG YOO, TAKESHI YOSHIKAWA, FEDERICO ZAHARIEV,
     TOBY ZENG

  WHO ARE SUPPORTED BY THEIR INSTITUTION/UNIVERSITY/COMPANY/GROUP
  (IN ALPHABETICAL ORDER):

     EP ANALYTICS, FACULTES UNIVERSITAIRES NOTRE-DAME DE LA PAIX,
     INSTITUTE FOR MOLECULAR SCIENCE, IOWA STATE UNIVERSITY,
     JACKSON STATE UNIVERSITY, JOHANNES KEPLER UNIVERSITY LINZ,
     KYUSHU UNIVERSITY, MICHIGAN STATE UNIVERSITY,
     MIE UNIVERSITY, THE MOLECULAR SCIENCES SOFTWARE INSTITUTE,
     MOSCOW STATE UNIVERSITY,
     N. COPERNICUS UNIVERSITY, NAGOYA UNIVERSITY,
     NANJING UNIVERSITY, NAT. INST. OF ADVANCED INDUSTRIAL
     SCIENCE AND TECHNOLOGY, NATIONAL INST. OF STANDARDS AND
     TECHNOLOGY, NESMEYANOV INSTITUTE OF ORGANOELEMENT COMPOUNDS
     OF RUSSIAN ACADEMY OF SCIENCES, OSAKA PREFECTURE UNIVERSITY,
     PENNSYLVANIA STATE UNIVERSITY, TOKYO INSTITUTE OF TECHNOLOGY,
     UNIVERSITY OF AARHUS, UNIVERSITY OF ALBERTA,
     UNIVERSITY OF CALIFORNIA AT SANTA BARBARA,
     UNIVERSITY OF COPENHAGEN, UNIVERSITY OF IOWA,
     UNIVERSITY OF MEMPHIS, UNIVERSITY OF MINNESOTA,
     UNIVERSITY OF NEBRASKA, UNIVERSITY OF NEW ENGLAND,
     UNIVERSITY OF NOTRE DAME, UNIVERSITY OF PISA,
     UNIVERSITY OF SILESIA, UNIVERSITY OF TOKYO,
     UNIVERSITY OF ZURICH, WASEDA UNIVERSITY, YALE UNIVERSITY

  GAMESS SOFTWARE MANAGEMENT TEAM FOR THIS RELEASE:
     MARK S. GORDON (TEAM LEAD),
     BRETT BODE (SENIOR ADVISOR),
     GIUSEPPE BARCA,
     COLLEEN BERTONI,
     KRISTOPHER KEIPERT (ADVISOR),
     SAROM S. LEANG (DEVELOPMENT LEAD),
     BUU PHAM,
     JORGE LUIS GALVEZ VALLEJO (WEBSITE ADMINISTRATOR),
     PENG XU


 PARALLEL VERSION RUNNING ON       12 PROCESSORS IN        1 NODES.

 EXECUTION OF GAMESS BEGUN 22:07:18 10-APR-2022    

            ECHO OF THE FIRST FEW INPUT CARDS -
 INPUT CARD> $CONTRL SCFTYP=RHF MULT=1 ICHARG=0 RUNTYP=OPTIMIZE                             
 INPUT CARD> DFTTYP=PBE0 ISPHER=0 MAXIT=200 NPRINT=-5 $END                                  
 INPUT CARD> $FORCE METHOD=ANALYTIC  SCLFAC = 0.97 $END                                     
 INPUT CARD> $BASIS GBASIS=N31 NGAUSS=6 NDFUNC=1 NPFUNC=0 DIFFSP=.F. DIFFS=.F. $END         
 INPUT CARD> $SYSTEM MWORDS=2000 $END                                                       
 INPUT CARD> $SCF DIRSCF=.T. $END                                                           
 INPUT CARD> $DFT IDCVER=4 $END                                                             
 INPUT CARD> $STATPT                                                                        
 INPUT CARD> OPTTOL=0.0001 NSTEP=100 HSSEND=.t.                                             
 INPUT CARD> IHREP = 10                                                                     
 INPUT CARD> $END                                                                           
 INPUT CARD> $DATA                                                                          
 INPUT CARD>CH2O2                                                                           
 INPUT CARD>C1                                                                              
 INPUT CARD>O     8.0   0.53578   0.49527   0.87255                                         
 INPUT CARD>C     6.0  -0.40317  -0.08268   0.10410                                         
 INPUT CARD>O     8.0  -0.23836  -0.46048  -1.01853                                         
 INPUT CARD>H     1.0   1.35311   0.54532   0.35440                                         
 INPUT CARD>H     1.0  -1.34815  -0.15470   0.66358                                         
 INPUT CARD> $END                                                                           
 2000000000 WORDS OF MEMORY AVAILABLE

     BASIS OPTIONS
     -------------
     GBASIS=N31          IGAUSS=       6      POLAR=POPN31  
     NDFUNC=       1     NFFUNC=       0     DIFFSP=       F
     NPFUNC=       0      DIFFS=       F     BASNAM=        


     RUN TITLE
     ---------
 CH2O2                                                                           

 THE POINT GROUP OF THE MOLECULE IS C1      
 THE ORDER OF THE PRINCIPAL AXIS IS     0

 ATOM      ATOMIC                      COORDINATES (BOHR)
           CHARGE         X                   Y                   Z
 O           8.0     1.0124773897        0.9359245899        1.6488804106
 C           6.0    -0.7618808265       -0.1562425447        0.1967204753
 O           8.0    -0.4504350864       -0.8701810228       -1.9247426103
 H           1.0     2.5570071312        1.0305053756        0.6697188900
 H           1.0    -2.5476340903       -0.2923406103        1.2539843709

          INTERNUCLEAR DISTANCES (ANGS.)
          ------------------------------

                1 O          2 C          3 O          4 H          5 H     

   1 O       0.0000000    1.3439378 *  2.2558667 *  0.9690267 *  2.0038268 *
   2 C       1.3439378 *  0.0000000    1.1959069 *  1.8819016 *  1.1005417 *
   3 O       2.2558667 *  1.1959069 *  0.0000000    2.3300960 *  2.0382908 *
   4 H       0.9690267 *  1.8819016 *  2.3300960 *  0.0000000    2.8075658 *
   5 H       2.0038268 *  1.1005417 *  2.0382908 *  2.8075658 *  0.0000000  

  * ... LESS THAN  3.000


     ATOMIC BASIS SET
     ----------------
 THE CONTRACTED PRIMITIVE FUNCTIONS HAVE BEEN UNNORMALIZED
 THE CONTRACTED BASIS FUNCTIONS ARE NOW NORMALIZED TO UNITY

  SHELL TYPE  PRIMITIVE        EXPONENT          CONTRACTION COEFFICIENT(S)

 O         

      1   S       1          5484.6716600    0.001831074430
      1   S       2           825.2349460    0.013950172200
      1   S       3           188.0469580    0.068445078098
      1   S       4            52.9645000    0.232714335992
      1   S       5            16.8975704    0.470192897984
      1   S       6             5.7996353    0.358520852987

      2   L       7            15.5396162   -0.110777549525    0.070874268231
      2   L       8             3.5999336   -0.148026262701    0.339752839147
      2   L       9             1.0137618    1.130767015354    0.727158577316

      3   L      10             0.2700058    1.000000000000    1.000000000000

      4   D      11             0.8000000    1.000000000000

 C         

      5   S      12          3047.5248800    0.001834737132
      5   S      13           457.3695180    0.014037322813
      5   S      14           103.9486850    0.068842622264
      5   S      15            29.2101553    0.232184443216
      5   S      16             9.2866630    0.467941348435
      5   S      17             3.1639270    0.362311985337

      6   L      18             7.8682723   -0.119332419775    0.068999066591
      6   L      19             1.8812885   -0.160854151696    0.316423960957
      6   L      20             0.5442493    1.143456437840    0.744308290898

      7   L      21             0.1687145    1.000000000000    1.000000000000

      8   D      22             0.8000000    1.000000000000

 O         

      9   S      23          5484.6716600    0.001831074430
      9   S      24           825.2349460    0.013950172200
      9   S      25           188.0469580    0.068445078098
      9   S      26            52.9645000    0.232714335992
      9   S      27            16.8975704    0.470192897984
      9   S      28             5.7996353    0.358520852987

     10   L      29            15.5396162   -0.110777549525    0.070874268231
     10   L      30             3.5999336   -0.148026262701    0.339752839147
     10   L      31             1.0137618    1.130767015354    0.727158577316

     11   L      32             0.2700058    1.000000000000    1.000000000000

     12   D      33             0.8000000    1.000000000000

 H         

     13   S      34            18.7311370    0.033494604338
     13   S      35             2.8253944    0.234726953484
     13   S      36             0.6401217    0.813757326146

     14   S      37             0.1612778    1.000000000000

 H         

     15   S      38            18.7311370    0.033494604338
     15   S      39             2.8253944    0.234726953484
     15   S      40             0.6401217    0.813757326146

     16   S      41             0.1612778    1.000000000000

 TOTAL NUMBER OF BASIS SET SHELLS             =   16
 NUMBER OF CARTESIAN GAUSSIAN BASIS FUNCTIONS =   49
 NUMBER OF ELECTRONS                          =   24
 CHARGE OF MOLECULE                           =    0
 SPIN MULTIPLICITY                            =    1
 NUMBER OF OCCUPIED ORBITALS (ALPHA)          =   12
 NUMBER OF OCCUPIED ORBITALS (BETA )          =   12
 TOTAL NUMBER OF ATOMS                        =    5
 THE NUCLEAR REPULSION ENERGY IS       70.2884338929

 SELECTED MURRAY-HANDY-LAMING RADIAL GRID

 LEGACY BECKE'S FUZZY CELL METHOD

 SELECTED ORIGINAL BECKE'S PARTITION FUNCTION

     LEBEDEV GRID-BASED DFT OPTIONS
     ------------------------------
     DFTTYP=PBE0    
     NRAD  =      96     NLEB  =     302
     NRAD0 =      24     NLEB0 =     110
     SWOFF =    5.00E-03 (PURE SCF -> DFT)
     SWITCH=    3.00E-04 (COARSE -> TIGHT GRID)
     THRESH=    0.00E+00 GTHRE=    1.00E+00

 GRIMME'S EMPIRICAL DISPERSION CORRECTION= T
  ________________________________

           DFTD3 V1.2             
   S.GRIMME, UNIVERSITY MUENSTER  
   WED MAR 10 08:38:00 CET 2010   
  ________________________________

 PLEASE CITE DFT-D3 WORK DONE WITH THIS CODE AS:
 S. GRIMME, J. ANTONY, S. EHRLICH AND H. KRIEG,
 J. CHEM. PHYS, 132 (2010), 154104.
 IF USED WITH BJ-DAMPING CITE ALSO
 S. GRIMME, S. EHRLICH AND L. GOERIGK,
 J. COMPUT. CHEM. 32 (2011), 1456-1465

 DFT-D3 PARAMETERS WILL BE LOADED AND PRINTED
 BEFORE THE RESULTS

 IMPLEMENTATION OF DFT-D IN GAMESS BY:
 R.PEVERATI AND K.K.BALDRIDGE, 
 J.CHEM.THEORY COMPUT. 4,(2008), 2030-2048


     $CONTRL OPTIONS
     ---------------
 SCFTYP=RHF          RUNTYP=OPTIMIZE     EXETYP=RUN     
 MPLEVL=       0     CITYP =NONE         CCTYP =NONE         VBTYP =NONE    
 DFTTYP=PBE0         TDDFT =NONE    
 MULT  =       1     ICHARG=       0     NZVAR =       0     COORD =UNIQUE  
 PP    =NONE         RELWFN=NONE         LOCAL =NONE         NUMGRD=       F
 ISPHER=       0     NOSYM =       0     MAXIT =     200     UNITS =ANGS    
 PLTORB=       F     MOLPLT=       F     AIMPAC=       F     FRIEND=        
 NPRINT=      -5     IREST =       0     GEOM  =INPUT   
 NORMF =       0     NORMP =       0     ITOL  =      20     ICUT  =       9
 INTTYP=BEST         GRDTYP=BEST         QMTTOL= 1.0E-06

     $SYSTEM OPTIONS
     ---------------
  REPLICATED MEMORY=  2000000000 WORDS (ON EVERY NODE).
 DISTRIBUTED MEMDDI=           0 MILLION WORDS IN AGGREGATE,
 MEMDDI DISTRIBUTED OVER  12 PROCESSORS IS           0 WORDS/PROCESSOR.
 TOTAL MEMORY REQUESTED ON EACH PROCESSOR=  2000000000 WORDS.
 TIMLIM=      525600.00 MINUTES, OR     365.0 DAYS.
 PARALL= T  BALTYP=  DLB     KDIAG=    0  COREFL= F
 MXSEQ2=     300 MXSEQ3=     150  mem10=         0  mem22=         0

          ----------------
          PROPERTIES INPUT
          ----------------

     MOMENTS            FIELD           POTENTIAL          DENSITY
 IEMOM =       1   IEFLD =       0   IEPOT =       0   IEDEN =       0
 WHERE =COMASS     WHERE =NUCLEI     WHERE =NUCLEI     WHERE =NUCLEI  
 OUTPUT=BOTH       OUTPUT=BOTH       OUTPUT=BOTH       OUTPUT=BOTH    
 IEMINT=       0   IEFINT=       0                     IEDINT=       0
                                                       MORB  =       0
          EXTRAPOLATION IN EFFECT
          DIIS IN EFFECT
 ORBITAL PRINTING OPTION: NPREO=     1    49     2     1

     -------------------------------
     INTEGRAL TRANSFORMATION OPTIONS
     -------------------------------
     NWORD  =            0
     CUTOFF = 1.0E-09     MPTRAN =       0
     DIRTRF =       T     AOINTS =DUP     

          ----------------------
          INTEGRAL INPUT OPTIONS
          ----------------------
 NOPK  =       1 NORDER=       0 SCHWRZ=       T

     ------------------------------------------
     THE POINT GROUP IS C1 , NAXIS= 0, ORDER= 1
     ------------------------------------------

     DIMENSIONS OF THE SYMMETRY SUBSPACES ARE
 A   =   49

 ..... DONE SETTING UP THE RUN .....
 CPU     0: STEP CPU TIME=     0.07 TOTAL CPU TIME=          0.1 (      0.0 MIN)
 TOTAL WALL CLOCK TIME=          0.1 SECONDS, CPU UTILIZATION IS    97.79%


          -----------------------------
          STATIONARY POINT LOCATION RUN
          -----------------------------

 OBTAINING INITIAL HESSIAN, HESS=GUESS   
 CARTESIAN COORDINATE OPTIMIZATION USING BADGER'S RULE FORCE CONSTANT GUESS

          PARAMETERS CONTROLLING GEOMETRY SEARCH ARE
          METHOD =QA                  UPHESS =BFGS    
          NNEG   =         0          NFRZ   =         0
          NSTEP  =       100          IFOLOW =         1
          HESS   =GUESS               RESTAR =         F
          IHREP  =        10          HSSEND =         T
          NPRT   =         0          NPUN   =         0
          OPTTOL = 1.000E-04          RMIN   = 1.500E-03
          RMAX   = 1.000E-01          RLIM   = 7.000E-02
          DXMAX  = 3.000E-01          PURIFY =         F
          MOVIE  =         F          TRUPD  =         T
          TRMAX  = 5.000E-01          TRMIN  = 5.000E-02
          ITBMAT =         5          STPT   =         F
          STSTEP = 1.000E-02          PROJCT=          T

 BEGINNING GEOMETRY SEARCH POINT NSERCH=   0 ...

 COORDINATES OF ALL ATOMS ARE (ANGS)
   ATOM   CHARGE       X              Y              Z
 ------------------------------------------------------------
 O           8.0   0.5357800000   0.4952700000   0.8725500000
 C           6.0  -0.4031700000  -0.0826800000   0.1041000000
 O           8.0  -0.2383600000  -0.4604800000  -1.0185300000
 H           1.0   1.3531100000   0.5453200000   0.3544000000
 H           1.0  -1.3481500000  -0.1547000000   0.6635800000
 ...... END OF ONE-ELECTRON INTEGRALS ......
 CPU     0: STEP CPU TIME=     0.01 TOTAL CPU TIME=          0.1 (      0.0 MIN)
 TOTAL WALL CLOCK TIME=          0.1 SECONDS, CPU UTILIZATION IS    99.56%

          -------------
          GUESS OPTIONS
          -------------
          GUESS =HUCKEL            NORB  =       0          NORDER=       0
          MIX   =       F          PRTMO =       F          PUNMO =       F
          TOLZ  = 1.0E-08          TOLE  = 1.0E-05
          SYMDEN=       F          PURIFY=       F

 INITIAL GUESS ORBITALS GENERATED BY HUCKEL   ROUTINE.
 HUCKEL GUESS REQUIRES     22562 WORDS.

 SYMMETRIES FOR INITIAL GUESS ORBITALS FOLLOW.   BOTH SET(S).
    12 ORBITALS ARE OCCUPIED (    3 CORE ORBITALS).
     4=A        5=A        6=A        7=A        8=A        9=A       10=A   
    11=A       12=A       13=A       14=A       15=A       16=A       17=A   
    18=A       19=A       20=A       21=A       22=A   
 ...... END OF INITIAL ORBITAL SELECTION ......
 CPU     0: STEP CPU TIME=     0.04 TOTAL CPU TIME=          0.1 (      0.0 MIN)
 TOTAL WALL CLOCK TIME=          0.1 SECONDS, CPU UTILIZATION IS   108.09%

                    ----------------------
                    AO INTEGRAL TECHNOLOGY
                    ----------------------
     S,P,L SHELL ROTATED AXIS INTEGRALS, REPROGRAMMED BY
        KAZUYA ISHIMURA (IMS) AND JOSE SIERRA (SYNSTAR).
     S,P,D,L SHELL ROTATED AXIS INTEGRALS PROGRAMMED BY
        KAZUYA ISHIMURA (INSTITUTE FOR MOLECULAR SCIENCE).
     S,P,D,F,G SHELL TO TOTAL QUARTET ANGULAR MOMENTUM SUM 5,
        ERIC PROGRAM BY GRAHAM FLETCHER (ELORET AND NASA ADVANCED
        SUPERCOMPUTING DIVISION, AMES RESEARCH CENTER).
     S,P,D,F,G,L SHELL GENERAL RYS QUADRATURE PROGRAMMED BY
        MICHEL DUPUIS (PACIFIC NORTHWEST NATIONAL LABORATORY).
  ...... END OF TWO-ELECTRON INTEGRALS .....
 CPU     0: STEP CPU TIME=     0.04 TOTAL CPU TIME=          0.2 (      0.0 MIN)
 TOTAL WALL CLOCK TIME=          0.1 SECONDS, CPU UTILIZATION IS   112.84%

          --------------------------
              R-PBE0 SCF CALCULATION
          --------------------------
         DENSITY MATRIX CONVERGENCE THRESHOLD=  2.00E-05
     COARSE -> FINE DFT GRID SWITCH THRESHOLD=  3.00E-04 (SWITCH IN $DFT)
                   HF -> DFT SWITCH THRESHOLD=  5.00E-03 (SWOFF IN $DFT)

 DIRECT SCF CALCULATION, SCHWRZ=T   FDIFF=T,  DIRTHR=  0.00E+00 NITDIR=10

 DFT CODE IS SWITCHING FROM THE FINE GRID NRAD= 96,  NLEB=  302
                      TO THE COARSE GRID NRAD0= 24, NLEB0=  110

     EXCHANGE FUNCTIONAL   =PBE&HFX   
     CORRELATION FUNCTIONAL=PBE       
     DFT THRESHOLD         =.276E-07
     GRID CHANGE THRESHOLD =.300E-03
 FOR AN EULER-MACLAURIN QUADRATURE USING  96 RADIAL POINTS:
 SMALLEST GAUSSIAN PRIMITIVE EXPONENT=        0.1612777588 OF TYPE -S-
 ON ATOM NUMBER   4 HAS RADIAL NORMALIZATION=  1.000000
  LARGEST GAUSSIAN PRIMITIVE EXPONENT=     5484.6716600000 OF TYPE -S-
 ON ATOM NUMBER   1 HAS RADIAL NORMALIZATION=  1.000000
 DFT IS SWITCHED OFF, PERFORMING PURE SCF UNTIL SWOFF THRESHOLD IS REACHED.

                                                                                   NONZERO     BLOCKS
 ITER EX DEM     TOTAL ENERGY        E CHANGE  DENSITY CHANGE    DIIS ERROR      INTEGRALS    SKIPPED
   1  0  0     -188.1053955850  -188.1053955850   0.309756357   0.775115577         730653        174
          * * *   INITIATING DIIS PROCEDURE   * * *
   2  1  0     -188.6803068817    -0.5749112967   0.166027271   0.135652824         730582        193
   3  2  0     -188.7239594532    -0.0436525715   0.085987421   0.090325653         730259        217
   4  3  0     -188.7599512922    -0.0359918390   0.014438858   0.010794502         729674        250
   5  4  0     -188.7608238161    -0.0008725239   0.004066497   0.005080067         728880        312
 CONVERGED TO SWOFF, SO DFT CALCULATION IS NOW SWITCHED ON.
          * * *   INITIATING DIIS PROCEDURE   * * *
   6  5  0     -189.5374866182    -0.7766628021   0.088804938   0.066475507         730646        176
   7  6  0     -189.5486230257    -0.0111364074   0.051292536   0.032770827         729984        221
   8  7  0     -189.5483517210     0.0002713047   0.033105521   0.038979427         729398        276
   9  8  0     -189.5522427180    -0.0038909971   0.007904721   0.007671311         729037        299
  10  9  0     -189.5524638657    -0.0002211476   0.001872514   0.002094724         727202        379
  11 10  0     -189.5524764785    -0.0000126129   0.000284026   0.000266700         721168        576
 DFT CODE IS SWITCHING BACK TO THE FINE GRID
          * * *   INITIATING DIIS PROCEDURE   * * *
  12 11  0     -189.5515764483     0.0009000302   0.001658036   0.001628914         730647        175
  13 12  0     -189.5515901010    -0.0000136527   0.001652544   0.001014228         725292        485
  14 13  0     -189.5515892281     0.0000008729   0.000754228   0.000951873         720944        608
  15 14  0     -189.5515923864    -0.0000031583   0.000222314   0.000159814         719328        673
  16 15  0     -189.5515924726    -0.0000000862   0.000044633   0.000066507         713710        892
  17 16  0     -189.5515924854    -0.0000000128   0.000012638   0.000011884         709102       1079
  18 17  0     -189.5515924861    -0.0000000007   0.000001956   0.000002912         703051       1247

          -----------------
          DENSITY CONVERGED
          -----------------
     TIME TO FORM FOCK OPERATORS=       1.1 SECONDS (       0.1 SEC/ITER)
     FOCK TIME ON FIRST ITERATION=       0.0, LAST ITERATION=       0.1
     TIME TO SOLVE SCF EQUATIONS=       0.2 SECONDS (       0.0 SEC/ITER)

          ----------------------------
          DFT-D PARAMETERS AND RESULTS
          ----------------------------
 C6 COEFFICIENTS USED:
       2 C6 FOR ELEMENT   1
  Z=  1 CN= 0.912     C6(AA)=    3.03
  Z=  1 CN= 0.000     C6(AA)=    7.59
       5 C6 FOR ELEMENT   6
  Z=  6 CN= 0.000     C6(AA)=   49.11
  Z=  6 CN= 0.987     C6(AA)=   43.25
  Z=  6 CN= 1.998     C6(AA)=   29.36
  Z=  6 CN= 2.999     C6(AA)=   25.78
  Z=  6 CN= 3.984     C6(AA)=   18.21
       3 C6 FOR ELEMENT   8
  Z=  8 CN= 0.000     C6(AA)=   15.51
  Z=  8 CN= 0.993     C6(AA)=   12.82
  Z=  8 CN= 1.989     C6(AA)=   10.37

 #          XYZ [AU]             R0(AA) [ANG.]  CN         C6(AA)     C8(AA)   C10(AA) [AU]
  1   1.01248   0.93592   1.64888    8  0.493  2.009        10.4       210.0      5191.7
  2  -0.76188  -0.15624   0.19672    6  0.590  3.009        25.7       742.0     26288.5
  3  -0.45044  -0.87018  -1.92474    8  0.493  1.019        12.8       258.2      6383.3
  4   2.55701   1.03051   0.66972    1  0.381  1.014         3.1        37.3       552.1
  5  -2.54763  -0.29234   1.25398    1  0.381  0.996         3.1        37.4       553.5

     MOLECULAR C6(AA) [AU] =       232.99

           DFT-D V3(BJ)

 FUNCTIONAL: PBE0    

 PARAMETERS
 S6       :    1.0000
 S8       :    1.2177
 A1       :    0.4145
 A2       :    4.8593
 K1-K3    :   16.0000    1.3333    4.0000

 EDISP /KCAL,AU:    -0.9257 -0.00147520

 E6    /KCAL :    -0.6029
 E8    /KCAL :    -0.3228
 % E8        : 34.87

 FINAL R-PBE0 ENERGY IS     -189.5530676832 AFTER  18 ITERATIONS
 DFT EXCHANGE + CORRELATION ENERGY =       -17.5413299121
 TOTAL ELECTRON NUMBER             =        23.9999798198
 GRIMME'S DISPERSION ENERGY                     =       -0.0014751972
 ENERGY WITHOUT GRIMME'S DISPERSION CORRECTION IS     -189.5515924861
 ...... END OF RHF CALCULATION ......
 CPU     0: STEP CPU TIME=     1.42 TOTAL CPU TIME=          1.6 (      0.0 MIN)
 TOTAL WALL CLOCK TIME=          1.5 SECONDS, CPU UTILIZATION IS   105.36%

          ----------------------------
          DFT-D PARAMETERS AND RESULTS
          ----------------------------
 C6 COEFFICIENTS USED:
       2 C6 FOR ELEMENT   1
  Z=  1 CN= 0.912     C6(AA)=    3.03
  Z=  1 CN= 0.000     C6(AA)=    7.59
       5 C6 FOR ELEMENT   6
  Z=  6 CN= 0.000     C6(AA)=   49.11
  Z=  6 CN= 0.987     C6(AA)=   43.25
  Z=  6 CN= 1.998     C6(AA)=   29.36
  Z=  6 CN= 2.999     C6(AA)=   25.78
  Z=  6 CN= 3.984     C6(AA)=   18.21
       3 C6 FOR ELEMENT   8
  Z=  8 CN= 0.000     C6(AA)=   15.51
  Z=  8 CN= 0.993     C6(AA)=   12.82
  Z=  8 CN= 1.989     C6(AA)=   10.37

 #          XYZ [AU]             R0(AA) [ANG.]  CN         C6(AA)     C8(AA)   C10(AA) [AU]
  1   1.01248   0.93592   1.64888    8  0.493  2.009        10.4       210.0      5191.7
  2  -0.76188  -0.15624   0.19672    6  0.590  3.009        25.7       742.0     26288.5
  3  -0.45044  -0.87018  -1.92474    8  0.493  1.019        12.8       258.2      6383.3
  4   2.55701   1.03051   0.66972    1  0.381  1.014         3.1        37.3       552.1
  5  -2.54763  -0.29234   1.25398    1  0.381  0.996         3.1        37.4       553.5

     MOLECULAR C6(AA) [AU] =       232.99

           DFT-D V3(BJ)

 FUNCTIONAL: PBE0    

 PARAMETERS
 S6       :    1.0000
 S8       :    1.2177
 A1       :    0.4145
 A2       :    4.8593
 K1-K3    :   16.0000    1.3333    4.0000

 EDISP /KCAL,AU:    -0.9257 -0.00147520

 E6    /KCAL :    -0.6029
 E8    /KCAL :    -0.3228
 % E8        : 34.87
 ..... END OF 1-ELECTRON GRADIENT ......
 CPU     0: STEP CPU TIME=     0.04 TOTAL CPU TIME=          1.6 (      0.0 MIN)
 TOTAL WALL CLOCK TIME=          1.5 SECONDS, CPU UTILIZATION IS   104.72%
 MEMORY FOR GRID POINT CONTRIBUTIONS TO THE DFT GRADIENT=    206786 WORDS.
 CPU     0: STEP CPU TIME=     0.07 TOTAL CPU TIME=          1.7 (      0.0 MIN)
 TOTAL WALL CLOCK TIME=          1.6 SECONDS, CPU UTILIZATION IS   103.61%
 ...... END OF 2-ELECTRON GRADIENT ......
 CPU     0: STEP CPU TIME=     0.01 TOTAL CPU TIME=          1.7 (      0.0 MIN)
 TOTAL WALL CLOCK TIME=          1.6 SECONDS, CPU UTILIZATION IS   103.55%

          NSERCH=  0     ENERGY=    -189.5530677

                                 -----------------------
                                 GRADIENT (HARTREE/BOHR)
                                 -----------------------
        ATOM     ZNUC       DE/DX         DE/DY         DE/DZ
 --------------------------------------------------------------
    1  O            8.0     0.0071862     0.0010064    -0.0032389
    2  C            6.0    -0.0025510    -0.0040911    -0.0081457
    3  O            8.0    -0.0012922     0.0028623     0.0083298
    4  H            1.0    -0.0021664     0.0007993     0.0038231
    5  H            1.0    -0.0011766    -0.0005769    -0.0007684

          MAXIMUM GRADIENT = 0.0083298    RMS GRADIENT = 0.0041170

 NSERCH:   0  E=     -189.5530676832  GRAD. MAX=  0.0083298  R.M.S.=  0.0041170

          FORCE CONSTANT MATRIX NOT UPDATED --- TAKING FIRST STEP
          MIN SEARCH, CORRECT HESSIAN, TRYING PURE NR STEP
               NR STEP HAS LENGTH         =   0.047951
          RADIUS OF STEP TAKEN=   0.04795  CURRENT TRUST RADIUS=   0.30000

 BEGINNING GEOMETRY SEARCH POINT NSERCH=   1 ...

 COORDINATES OF ALL ATOMS ARE (ANGS)
   ATOM   CHARGE       X              Y              Z
 ------------------------------------------------------------
 O           8.0   0.5271776067   0.4971153499   0.8842098482
 C           6.0  -0.3976451906  -0.0814492680   0.1029363884
 O           8.0  -0.2342539224  -0.4621487458  -1.0261656167
 H           1.0   1.3432126704   0.5393358091   0.3465783548
 H           1.0  -1.3392811641  -0.1501231451   0.6685410253

          INTERNUCLEAR DISTANCES (ANGS.)
          ------------------------------

                1 O          2 C          3 O          4 H          5 H     

   1 O       0.0000000    1.3417982 *  2.2692510 *  0.9781326 *  1.9872340 *
   2 C       1.3417982 *  0.0000000    1.2027053 *  1.8642214 *  1.1005921 *
   3 O       2.2692510 *  1.2027053 *  0.0000000    2.3185768 *  2.0470652 *
   4 H       0.9781326 *  1.8642214 *  2.3185768 *  0.0000000    2.7883305 *
   5 H       1.9872340 *  1.1005921 *  2.0470652 *  2.7883305 *  0.0000000  

  * ... LESS THAN  3.000

 ...... END OF ONE-ELECTRON INTEGRALS ......
 CPU     0: STEP CPU TIME=     0.00 TOTAL CPU TIME=          1.7 (      0.0 MIN)
 TOTAL WALL CLOCK TIME=          1.6 SECONDS, CPU UTILIZATION IS   103.54%
  ...... END OF TWO-ELECTRON INTEGRALS .....
 CPU     0: STEP CPU TIME=     0.00 TOTAL CPU TIME=          1.7 (      0.0 MIN)
 TOTAL WALL CLOCK TIME=          1.6 SECONDS, CPU UTILIZATION IS   103.57%

          --------------------------
              R-PBE0 SCF CALCULATION
          --------------------------
         DENSITY MATRIX CONVERGENCE THRESHOLD=  2.00E-05
     COARSE -> FINE DFT GRID SWITCH THRESHOLD=  3.00E-04 (SWITCH IN $DFT)
                   HF -> DFT SWITCH THRESHOLD=  5.00E-03 (SWOFF IN $DFT)

 DIRECT SCF CALCULATION, SCHWRZ=T   FDIFF=T,  DIRTHR=  0.00E+00 NITDIR=10

 DFT CODE IS SWITCHING FROM THE FINE GRID NRAD= 96,  NLEB=  302
                      TO THE COARSE GRID NRAD0= 24, NLEB0=  110

                                                                                   NONZERO     BLOCKS
 ITER EX DEM     TOTAL ENERGY        E CHANGE  DENSITY CHANGE    DIIS ERROR      INTEGRALS    SKIPPED
          * * *   INITIATING DIIS PROCEDURE   * * *
   1  0  0     -189.5524521590  -189.5524521590   0.006547260   0.005039498         730513        174
   2  1  0     -189.5525778461    -0.0001256871   0.004950507   0.002343406         728103        336
   3  2  0     -189.5525781751    -0.0000003290   0.002279636   0.002897875         724754        458
   4  3  0     -189.5526004923    -0.0000223172   0.000739921   0.000586281         722633        534
   5  4  0     -189.5526016161    -0.0000011238   0.000149454   0.000195776         717565        729
 DFT CODE IS SWITCHING BACK TO THE FINE GRID
          * * *   INITIATING DIIS PROCEDURE   * * *
   6  5  0     -189.5516032283     0.0009983878   0.001709082   0.001535494         730507        175
   7  6  0     -189.5516168752    -0.0000136470   0.001543821   0.000958375         724320        495
   8  7  0     -189.5516157849     0.0000010903   0.000728877   0.000947992         720319        623
   9  8  0     -189.5516188270    -0.0000030421   0.000210502   0.000142575         718403        688
  10  9  0     -189.5516189008    -0.0000000738   0.000043893   0.000063905         712495        897
  11 10  0     -189.5516189133    -0.0000000124   0.000012990   0.000012161         708883       1079
  12 11  0     -189.5516189140    -0.0000000007   0.000002024   0.000003080         701461       1246

          -----------------
          DENSITY CONVERGED
          -----------------
     TIME TO FORM FOCK OPERATORS=       0.9 SECONDS (       0.1 SEC/ITER)
     FOCK TIME ON FIRST ITERATION=       0.0, LAST ITERATION=       0.1
     TIME TO SOLVE SCF EQUATIONS=       0.1 SECONDS (       0.0 SEC/ITER)

          ----------------------------
          DFT-D PARAMETERS AND RESULTS
          ----------------------------
 C6 COEFFICIENTS USED:
       2 C6 FOR ELEMENT   1
  Z=  1 CN= 0.912     C6(AA)=    3.03
  Z=  1 CN= 0.000     C6(AA)=    7.59
       5 C6 FOR ELEMENT   6
  Z=  6 CN= 0.000     C6(AA)=   49.11
  Z=  6 CN= 0.987     C6(AA)=   43.25
  Z=  6 CN= 1.998     C6(AA)=   29.36
  Z=  6 CN= 2.999     C6(AA)=   25.78
  Z=  6 CN= 3.984     C6(AA)=   18.21
       3 C6 FOR ELEMENT   8
  Z=  8 CN= 0.000     C6(AA)=   15.51
  Z=  8 CN= 0.993     C6(AA)=   12.82
  Z=  8 CN= 1.989     C6(AA)=   10.37

 #          XYZ [AU]             R0(AA) [ANG.]  CN         C6(AA)     C8(AA)   C10(AA) [AU]
  1   0.99622   0.93941   1.67091    8  0.493  2.007        10.4       210.0      5192.0
  2  -0.75144  -0.15392   0.19452    6  0.590  3.011        25.7       741.9     26283.7
  3  -0.44268  -0.87333  -1.93917    8  0.493  1.018        12.8       258.2      6383.7
  4   2.53830   1.01920   0.65494    1  0.381  1.015         3.1        37.3       552.1
  5  -2.53087  -0.28369   1.26336    1  0.381  0.997         3.1        37.4       553.5

     MOLECULAR C6(AA) [AU] =       232.98

           DFT-D V3(BJ)

 FUNCTIONAL: PBE0    

 PARAMETERS
 S6       :    1.0000
 S8       :    1.2177
 A1       :    0.4145
 A2       :    4.8593
 K1-K3    :   16.0000    1.3333    4.0000

 EDISP /KCAL,AU:    -0.9261 -0.00147580

 E6    /KCAL :    -0.6032
 E8    /KCAL :    -0.3229
 % E8        : 34.86

 FINAL R-PBE0 ENERGY IS     -189.5530947185 AFTER  12 ITERATIONS
 DFT EXCHANGE + CORRELATION ENERGY =       -17.5343134431
 TOTAL ELECTRON NUMBER             =        23.9999829726
 GRIMME'S DISPERSION ENERGY                     =       -0.0014758045
 ENERGY WITHOUT GRIMME'S DISPERSION CORRECTION IS     -189.5516189140
 ...... END OF RHF CALCULATION ......
 CPU     0: STEP CPU TIME=     1.15 TOTAL CPU TIME=          2.9 (      0.0 MIN)
 TOTAL WALL CLOCK TIME=          2.8 SECONDS, CPU UTILIZATION IS   101.09%

          ----------------------------
          DFT-D PARAMETERS AND RESULTS
          ----------------------------
 C6 COEFFICIENTS USED:
       2 C6 FOR ELEMENT   1
  Z=  1 CN= 0.912     C6(AA)=    3.03
  Z=  1 CN= 0.000     C6(AA)=    7.59
       5 C6 FOR ELEMENT   6
  Z=  6 CN= 0.000     C6(AA)=   49.11
  Z=  6 CN= 0.987     C6(AA)=   43.25
  Z=  6 CN= 1.998     C6(AA)=   29.36
  Z=  6 CN= 2.999     C6(AA)=   25.78
  Z=  6 CN= 3.984     C6(AA)=   18.21
       3 C6 FOR ELEMENT   8
  Z=  8 CN= 0.000     C6(AA)=   15.51
  Z=  8 CN= 0.993     C6(AA)=   12.82
  Z=  8 CN= 1.989     C6(AA)=   10.37

 #          XYZ [AU]             R0(AA) [ANG.]  CN         C6(AA)     C8(AA)   C10(AA) [AU]
  1   0.99622   0.93941   1.67091    8  0.493  2.007        10.4       210.0      5192.0
  2  -0.75144  -0.15392   0.19452    6  0.590  3.011        25.7       741.9     26283.7
  3  -0.44268  -0.87333  -1.93917    8  0.493  1.018        12.8       258.2      6383.7
  4   2.53830   1.01920   0.65494    1  0.381  1.015         3.1        37.3       552.1
  5  -2.53087  -0.28369   1.26336    1  0.381  0.997         3.1        37.4       553.5

     MOLECULAR C6(AA) [AU] =       232.98

           DFT-D V3(BJ)

 FUNCTIONAL: PBE0    

 PARAMETERS
 S6       :    1.0000
 S8       :    1.2177
 A1       :    0.4145
 A2       :    4.8593
 K1-K3    :   16.0000    1.3333    4.0000

 EDISP /KCAL,AU:    -0.9261 -0.00147580

 E6    /KCAL :    -0.6032
 E8    /KCAL :    -0.3229
 % E8        : 34.86
 ..... END OF 1-ELECTRON GRADIENT ......
 CPU     0: STEP CPU TIME=     0.04 TOTAL CPU TIME=          2.9 (      0.0 MIN)
 TOTAL WALL CLOCK TIME=          2.9 SECONDS, CPU UTILIZATION IS   101.06%
 MEMORY FOR GRID POINT CONTRIBUTIONS TO THE DFT GRADIENT=    206786 WORDS.
 CPU     0: STEP CPU TIME=     0.08 TOTAL CPU TIME=          3.0 (      0.0 MIN)
 TOTAL WALL CLOCK TIME=          2.9 SECONDS, CPU UTILIZATION IS   100.54%
 ...... END OF 2-ELECTRON GRADIENT ......
 CPU     0: STEP CPU TIME=     0.01 TOTAL CPU TIME=          3.0 (      0.0 MIN)
 TOTAL WALL CLOCK TIME=          3.0 SECONDS, CPU UTILIZATION IS   100.49%

          NSERCH=  1     ENERGY=    -189.5530947

                                 -----------------------
                                 GRADIENT (HARTREE/BOHR)
                                 -----------------------
        ATOM     ZNUC       DE/DX         DE/DY         DE/DZ
 --------------------------------------------------------------
    1  O            8.0    -0.0034263     0.0019280     0.0076171
    2  C            6.0     0.0029284    -0.0000512    -0.0018996
    3  O            8.0    -0.0019886    -0.0020913    -0.0041094
    4  H            1.0     0.0021416    -0.0004321    -0.0028339
    5  H            1.0     0.0003450     0.0006465     0.0012258

          MAXIMUM GRADIENT = 0.0076171    RMS GRADIENT = 0.0028951

 NSERCH:   1  E=     -189.5530947185  GRAD. MAX=  0.0076171  R.M.S.=  0.0028951

          HESSIAN UPDATED USING THE BFGS FORMULA
             ACTUAL ENERGY CHANGE WAS  -0.0000270353
          PREDICTED ENERGY CHANGE WAS  -0.0001995504 RATIO=  0.135
          MIN SEARCH, CORRECT HESSIAN, TRYING PURE NR STEP
               NR STEP HAS LENGTH         =   0.036133
          RADIUS OF STEP TAKEN=   0.03613  CURRENT TRUST RADIUS=   0.05000

 BEGINNING GEOMETRY SEARCH POINT NSERCH=   2 ...

 COORDINATES OF ALL ATOMS ARE (ANGS)
   ATOM   CHARGE       X              Y              Z
 ------------------------------------------------------------
 O           8.0   0.5297060871   0.4950075630   0.8766737780
 C           6.0  -0.4042112246  -0.0811444629   0.1089574698
 O           8.0  -0.2250281668  -0.4573624253  -1.0209510326
 H           1.0   1.3456776451   0.5387261186   0.3430235860
 H           1.0  -1.3469343409  -0.1524967934   0.6683961989

          INTERNUCLEAR DISTANCES (ANGS.)
          ------------------------------

                1 O          2 C          3 O          4 H          5 H     

   1 O       0.0000000    1.3392315 *  2.2533558 *  0.9759628 *  1.9961014 *
   2 C       1.3392315 *  0.0000000    1.2043005 *  1.8711327 *  1.0985398 *
   3 O       2.2533558 *  1.2043005 *  0.0000000    2.3064553 *  2.0507342 *
   4 H       0.9759628 *  1.8711327 *  2.3064553 *  0.0000000    2.7988955 *
   5 H       1.9961014 *  1.0985398 *  2.0507342 *  2.7988955 *  0.0000000  

  * ... LESS THAN  3.000

 ...... END OF ONE-ELECTRON INTEGRALS ......
 CPU     0: STEP CPU TIME=     0.00 TOTAL CPU TIME=          3.0 (      0.0 MIN)
 TOTAL WALL CLOCK TIME=          3.0 SECONDS, CPU UTILIZATION IS   100.48%
  ...... END OF TWO-ELECTRON INTEGRALS .....
 CPU     0: STEP CPU TIME=     0.06 TOTAL CPU TIME=          3.0 (      0.1 MIN)
 TOTAL WALL CLOCK TIME=          3.0 SECONDS, CPU UTILIZATION IS   100.79%

          --------------------------
              R-PBE0 SCF CALCULATION
          --------------------------
         DENSITY MATRIX CONVERGENCE THRESHOLD=  2.00E-05
     COARSE -> FINE DFT GRID SWITCH THRESHOLD=  3.00E-04 (SWITCH IN $DFT)
                   HF -> DFT SWITCH THRESHOLD=  5.00E-03 (SWOFF IN $DFT)

 DIRECT SCF CALCULATION, SCHWRZ=T   FDIFF=T,  DIRTHR=  0.00E+00 NITDIR=10

 DFT CODE IS SWITCHING FROM THE FINE GRID NRAD= 96,  NLEB=  302
                      TO THE COARSE GRID NRAD0= 24, NLEB0=  110

                                                                                   NONZERO     BLOCKS
 ITER EX DEM     TOTAL ENERGY        E CHANGE  DENSITY CHANGE    DIIS ERROR      INTEGRALS    SKIPPED
          * * *   INITIATING DIIS PROCEDURE   * * *
   1  0  0     -189.5525921170  -189.5525921170   0.006477141   0.004105377         730645        174
   2  1  0     -189.5527462997    -0.0001541827   0.002408627   0.000822051         728210        338
   3  2  0     -189.5527390352     0.0000072645   0.001901909   0.001651267         723380        512
   4  3  0     -189.5527508970    -0.0000118618   0.000207012   0.000216484         721796        583
 DFT CODE IS SWITCHING BACK TO THE FINE GRID
          * * *   INITIATING DIIS PROCEDURE   * * *
   5  4  0     -189.5516759414     0.0010749555   0.001596501   0.001537796         730645        174
   6  5  0     -189.5516889200    -0.0000129786   0.001701908   0.001061442         725510        474
   7  6  0     -189.5516883557     0.0000005643   0.000785197   0.000970475         721022        597
   8  7  0     -189.5516912990    -0.0000029433   0.000239528   0.000174275         719234        674
   9  8  0     -189.5516914026    -0.0000001036   0.000045254   0.000065867         713851        882
  10  9  0     -189.5516914160    -0.0000000134   0.000011895   0.000010676         709283       1078
  11 10  0     -189.5516914166    -0.0000000006   0.000001985   0.000002847         703206       1235

          -----------------
          DENSITY CONVERGED
          -----------------
     TIME TO FORM FOCK OPERATORS=       0.8 SECONDS (       0.1 SEC/ITER)
     FOCK TIME ON FIRST ITERATION=       0.0, LAST ITERATION=       0.1
     TIME TO SOLVE SCF EQUATIONS=       0.2 SECONDS (       0.0 SEC/ITER)

          ----------------------------
          DFT-D PARAMETERS AND RESULTS
          ----------------------------
 C6 COEFFICIENTS USED:
       2 C6 FOR ELEMENT   1
  Z=  1 CN= 0.912     C6(AA)=    3.03
  Z=  1 CN= 0.000     C6(AA)=    7.59
       5 C6 FOR ELEMENT   6
  Z=  6 CN= 0.000     C6(AA)=   49.11
  Z=  6 CN= 0.987     C6(AA)=   43.25
  Z=  6 CN= 1.998     C6(AA)=   29.36
  Z=  6 CN= 2.999     C6(AA)=   25.78
  Z=  6 CN= 3.984     C6(AA)=   18.21
       3 C6 FOR ELEMENT   8
  Z=  8 CN= 0.000     C6(AA)=   15.51
  Z=  8 CN= 0.993     C6(AA)=   12.82
  Z=  8 CN= 1.989     C6(AA)=   10.37

 #          XYZ [AU]             R0(AA) [ANG.]  CN         C6(AA)     C8(AA)   C10(AA) [AU]
  1   1.00100   0.93543   1.65667    8  0.493  2.009        10.4       210.0      5191.7
  2  -0.76385  -0.15334   0.20590    6  0.590  3.011        25.7       741.9     26284.8
  3  -0.42524  -0.86429  -1.92932    8  0.493  1.019        12.8       258.2      6383.2
  4   2.54296   1.01804   0.64822    1  0.381  1.014         3.1        37.3       552.1
  5  -2.54534  -0.28818   1.26309    1  0.381  0.997         3.1        37.4       553.5

     MOLECULAR C6(AA) [AU] =       232.98

           DFT-D V3(BJ)

 FUNCTIONAL: PBE0    

 PARAMETERS
 S6       :    1.0000
 S8       :    1.2177
 A1       :    0.4145
 A2       :    4.8593
 K1-K3    :   16.0000    1.3333    4.0000

 EDISP /KCAL,AU:    -0.9262 -0.00147596

 E6    /KCAL :    -0.6033
 E8    /KCAL :    -0.3229
 % E8        : 34.86

 FINAL R-PBE0 ENERGY IS     -189.5531673815 AFTER  11 ITERATIONS
 DFT EXCHANGE + CORRELATION ENERGY =       -17.5363188306
 TOTAL ELECTRON NUMBER             =        23.9999772428
 GRIMME'S DISPERSION ENERGY                     =       -0.0014759649
 ENERGY WITHOUT GRIMME'S DISPERSION CORRECTION IS     -189.5516914166
 ...... END OF RHF CALCULATION ......
 CPU     0: STEP CPU TIME=     1.00 TOTAL CPU TIME=          4.0 (      0.1 MIN)
 TOTAL WALL CLOCK TIME=          4.1 SECONDS, CPU UTILIZATION IS    99.22%

          ----------------------------
          DFT-D PARAMETERS AND RESULTS
          ----------------------------
 C6 COEFFICIENTS USED:
       2 C6 FOR ELEMENT   1
  Z=  1 CN= 0.912     C6(AA)=    3.03
  Z=  1 CN= 0.000     C6(AA)=    7.59
       5 C6 FOR ELEMENT   6
  Z=  6 CN= 0.000     C6(AA)=   49.11
  Z=  6 CN= 0.987     C6(AA)=   43.25
  Z=  6 CN= 1.998     C6(AA)=   29.36
  Z=  6 CN= 2.999     C6(AA)=   25.78
  Z=  6 CN= 3.984     C6(AA)=   18.21
       3 C6 FOR ELEMENT   8
  Z=  8 CN= 0.000     C6(AA)=   15.51
  Z=  8 CN= 0.993     C6(AA)=   12.82
  Z=  8 CN= 1.989     C6(AA)=   10.37

 #          XYZ [AU]             R0(AA) [ANG.]  CN         C6(AA)     C8(AA)   C10(AA) [AU]
  1   1.00100   0.93543   1.65667    8  0.493  2.009        10.4       210.0      5191.7
  2  -0.76385  -0.15334   0.20590    6  0.590  3.011        25.7       741.9     26284.8
  3  -0.42524  -0.86429  -1.92932    8  0.493  1.019        12.8       258.2      6383.2
  4   2.54296   1.01804   0.64822    1  0.381  1.014         3.1        37.3       552.1
  5  -2.54534  -0.28818   1.26309    1  0.381  0.997         3.1        37.4       553.5

     MOLECULAR C6(AA) [AU] =       232.98

           DFT-D V3(BJ)

 FUNCTIONAL: PBE0    

 PARAMETERS
 S6       :    1.0000
 S8       :    1.2177
 A1       :    0.4145
 A2       :    4.8593
 K1-K3    :   16.0000    1.3333    4.0000

 EDISP /KCAL,AU:    -0.9262 -0.00147596

 E6    /KCAL :    -0.6033
 E8    /KCAL :    -0.3229
 % E8        : 34.86
 ..... END OF 1-ELECTRON GRADIENT ......
 CPU     0: STEP CPU TIME=     0.06 TOTAL CPU TIME=          4.1 (      0.1 MIN)
 TOTAL WALL CLOCK TIME=          4.1 SECONDS, CPU UTILIZATION IS    99.26%
 MEMORY FOR GRID POINT CONTRIBUTIONS TO THE DFT GRADIENT=    206786 WORDS.
 CPU     0: STEP CPU TIME=     0.07 TOTAL CPU TIME=          4.2 (      0.1 MIN)
 TOTAL WALL CLOCK TIME=          4.2 SECONDS, CPU UTILIZATION IS    99.42%
 ...... END OF 2-ELECTRON GRADIENT ......
 CPU     0: STEP CPU TIME=     0.01 TOTAL CPU TIME=          4.2 (      0.1 MIN)
 TOTAL WALL CLOCK TIME=          4.2 SECONDS, CPU UTILIZATION IS    99.41%

          NSERCH=  2     ENERGY=    -189.5531674

                                 -----------------------
                                 GRADIENT (HARTREE/BOHR)
                                 -----------------------
        ATOM     ZNUC       DE/DX         DE/DY         DE/DZ
 --------------------------------------------------------------
    1  O            8.0    -0.0003893    -0.0001842    -0.0003371
    2  C            6.0    -0.0048974     0.0002963     0.0052254
    3  O            8.0     0.0025079    -0.0009054    -0.0045752
    4  H            1.0     0.0022592     0.0004745    -0.0005473
    5  H            1.0     0.0005196     0.0003188     0.0002341

          MAXIMUM GRADIENT = 0.0052254    RMS GRADIENT = 0.0023913

 NSERCH:   2  E=     -189.5531673815  GRAD. MAX=  0.0052254  R.M.S.=  0.0023913

          HESSIAN UPDATED USING THE BFGS FORMULA
             ACTUAL ENERGY CHANGE WAS  -0.0000726630
          PREDICTED ENERGY CHANGE WAS  -0.0001316499 RATIO=  0.552
          MIN SEARCH, CORRECT HESSIAN, TRYING PURE NR STEP
               NR STEP HAS LENGTH         =   0.025432
          RADIUS OF STEP TAKEN=   0.02543  CURRENT TRUST RADIUS=   0.05000

 BEGINNING GEOMETRY SEARCH POINT NSERCH=   3 ...

 COORDINATES OF ALL ATOMS ARE (ANGS)
   ATOM   CHARGE       X              Y              Z
 ------------------------------------------------------------
 O           8.0   0.5327198680   0.4960800032   0.8770952044
 C           6.0  -0.3992002104  -0.0796951730   0.1087705648
 O           8.0  -0.2335516757  -0.4586519649  -1.0175638825
 H           1.0   1.3461934145   0.5399635413   0.3458613382
 H           1.0  -1.3469513963  -0.1549664065   0.6619367750

          INTERNUCLEAR DISTANCES (ANGS.)
          ------------------------------

                1 O          2 C          3 O          4 H          5 H     

   1 O       0.0000000    1.3380265 *  2.2557523 *  0.9725607 *  2.0008295 *
   2 C       1.3380265 *  0.0000000    1.1998654 *  1.8672407 *  1.0999504 *
   3 O       2.2557523 *  1.1998654 *  0.0000000    2.3133862 *  2.0377945 *
   4 H       0.9725607 *  1.8672407 *  2.3133862 *  0.0000000    2.7992607 *
   5 H       2.0008295 *  1.0999504 *  2.0377945 *  2.7992607 *  0.0000000  

  * ... LESS THAN  3.000

 ...... END OF ONE-ELECTRON INTEGRALS ......
 CPU     0: STEP CPU TIME=     0.00 TOTAL CPU TIME=          4.2 (      0.1 MIN)
 TOTAL WALL CLOCK TIME=          4.2 SECONDS, CPU UTILIZATION IS    99.41%
  ...... END OF TWO-ELECTRON INTEGRALS .....
 CPU     0: STEP CPU TIME=     0.01 TOTAL CPU TIME=          4.2 (      0.1 MIN)
 TOTAL WALL CLOCK TIME=          4.2 SECONDS, CPU UTILIZATION IS    99.48%

          --------------------------
              R-PBE0 SCF CALCULATION
          --------------------------
         DENSITY MATRIX CONVERGENCE THRESHOLD=  2.00E-05
     COARSE -> FINE DFT GRID SWITCH THRESHOLD=  3.00E-04 (SWITCH IN $DFT)
                   HF -> DFT SWITCH THRESHOLD=  5.00E-03 (SWOFF IN $DFT)

 DIRECT SCF CALCULATION, SCHWRZ=T   FDIFF=T,  DIRTHR=  0.00E+00 NITDIR=10

 DFT CODE IS SWITCHING FROM THE FINE GRID NRAD= 96,  NLEB=  302
                      TO THE COARSE GRID NRAD0= 24, NLEB0=  110

                                                                                   NONZERO     BLOCKS
 ITER EX DEM     TOTAL ENERGY        E CHANGE  DENSITY CHANGE    DIIS ERROR      INTEGRALS    SKIPPED
          * * *   INITIATING DIIS PROCEDURE   * * *
   1  0  0     -189.5526264641  -189.5526264641   0.005907384   0.004253954         730645        174
   2  1  0     -189.5527296861    -0.0001032220   0.001058925   0.000539871         727175        384
   3  2  0     -189.5527304541    -0.0000007679   0.000832542   0.000602829         721157        585
   4  3  0     -189.5527312761    -0.0000008220   0.000320179   0.000329813         718628        698
   5  4  0     -189.5527316558    -0.0000003797   0.000061661   0.000062337         716066        828
 DFT CODE IS SWITCHING BACK TO THE FINE GRID
          * * *   INITIATING DIIS PROCEDURE   * * *
   6  5  0     -189.5516960888     0.0010355670   0.001686083   0.001560169         730645        174
   7  6  0     -189.5517091818    -0.0000130930   0.001597497   0.000986748         725407        478
   8  7  0     -189.5517082498     0.0000009320   0.000739403   0.000948688         720748        607
   9  8  0     -189.5517112998    -0.0000030499   0.000215127   0.000154910         719327        670
  10  9  0     -189.5517113804    -0.0000000806   0.000043606   0.000064191         713541        889
  11 10  0     -189.5517113925    -0.0000000122   0.000012216   0.000011127         709023       1079
  12 11  0     -189.5517113932    -0.0000000007   0.000001973   0.000002900         703112       1242

          -----------------
          DENSITY CONVERGED
          -----------------
     TIME TO FORM FOCK OPERATORS=       1.0 SECONDS (       0.1 SEC/ITER)
     FOCK TIME ON FIRST ITERATION=       0.0, LAST ITERATION=       0.1
     TIME TO SOLVE SCF EQUATIONS=       0.2 SECONDS (       0.0 SEC/ITER)

          ----------------------------
          DFT-D PARAMETERS AND RESULTS
          ----------------------------
 C6 COEFFICIENTS USED:
       2 C6 FOR ELEMENT   1
  Z=  1 CN= 0.912     C6(AA)=    3.03
  Z=  1 CN= 0.000     C6(AA)=    7.59
       5 C6 FOR ELEMENT   6
  Z=  6 CN= 0.000     C6(AA)=   49.11
  Z=  6 CN= 0.987     C6(AA)=   43.25
  Z=  6 CN= 1.998     C6(AA)=   29.36
  Z=  6 CN= 2.999     C6(AA)=   25.78
  Z=  6 CN= 3.984     C6(AA)=   18.21
       3 C6 FOR ELEMENT   8
  Z=  8 CN= 0.000     C6(AA)=   15.51
  Z=  8 CN= 0.993     C6(AA)=   12.82
  Z=  8 CN= 1.989     C6(AA)=   10.37

 #          XYZ [AU]             R0(AA) [ANG.]  CN         C6(AA)     C8(AA)   C10(AA) [AU]
  1   1.00669   0.93746   1.65747    8  0.493  2.009        10.4       210.0      5191.7
  2  -0.75438  -0.15060   0.20555    6  0.590  3.011        25.7       741.9     26284.0
  3  -0.44135  -0.86673  -1.92292    8  0.493  1.019        12.8       258.2      6383.3
  4   2.54394   1.02038   0.65358    1  0.381  1.015         3.1        37.3       552.0
  5  -2.54537  -0.29284   1.25088    1  0.381  0.997         3.1        37.4       553.5

     MOLECULAR C6(AA) [AU] =       232.97

           DFT-D V3(BJ)

 FUNCTIONAL: PBE0    

 PARAMETERS
 S6       :    1.0000
 S8       :    1.2177
 A1       :    0.4145
 A2       :    4.8593
 K1-K3    :   16.0000    1.3333    4.0000

 EDISP /KCAL,AU:    -0.9261 -0.00147586

 E6    /KCAL :    -0.6033
 E8    /KCAL :    -0.3229
 % E8        : 34.86

 FINAL R-PBE0 ENERGY IS     -189.5531872521 AFTER  12 ITERATIONS
 DFT EXCHANGE + CORRELATION ENERGY =       -17.5403381921
 TOTAL ELECTRON NUMBER             =        23.9999750836
 GRIMME'S DISPERSION ENERGY                     =       -0.0014758589
 ENERGY WITHOUT GRIMME'S DISPERSION CORRECTION IS     -189.5517113932
 ...... END OF RHF CALCULATION ......
 CPU     0: STEP CPU TIME=     1.27 TOTAL CPU TIME=          5.5 (      0.1 MIN)
 TOTAL WALL CLOCK TIME=          5.4 SECONDS, CPU UTILIZATION IS   101.41%

          ----------------------------
          DFT-D PARAMETERS AND RESULTS
          ----------------------------
 C6 COEFFICIENTS USED:
       2 C6 FOR ELEMENT   1
  Z=  1 CN= 0.912     C6(AA)=    3.03
  Z=  1 CN= 0.000     C6(AA)=    7.59
       5 C6 FOR ELEMENT   6
  Z=  6 CN= 0.000     C6(AA)=   49.11
  Z=  6 CN= 0.987     C6(AA)=   43.25
  Z=  6 CN= 1.998     C6(AA)=   29.36
  Z=  6 CN= 2.999     C6(AA)=   25.78
  Z=  6 CN= 3.984     C6(AA)=   18.21
       3 C6 FOR ELEMENT   8
  Z=  8 CN= 0.000     C6(AA)=   15.51
  Z=  8 CN= 0.993     C6(AA)=   12.82
  Z=  8 CN= 1.989     C6(AA)=   10.37

 #          XYZ [AU]             R0(AA) [ANG.]  CN         C6(AA)     C8(AA)   C10(AA) [AU]
  1   1.00669   0.93746   1.65747    8  0.493  2.009        10.4       210.0      5191.7
  2  -0.75438  -0.15060   0.20555    6  0.590  3.011        25.7       741.9     26284.0
  3  -0.44135  -0.86673  -1.92292    8  0.493  1.019        12.8       258.2      6383.3
  4   2.54394   1.02038   0.65358    1  0.381  1.015         3.1        37.3       552.0
  5  -2.54537  -0.29284   1.25088    1  0.381  0.997         3.1        37.4       553.5

     MOLECULAR C6(AA) [AU] =       232.97

           DFT-D V3(BJ)

 FUNCTIONAL: PBE0    

 PARAMETERS
 S6       :    1.0000
 S8       :    1.2177
 A1       :    0.4145
 A2       :    4.8593
 K1-K3    :   16.0000    1.3333    4.0000

 EDISP /KCAL,AU:    -0.9261 -0.00147586

 E6    /KCAL :    -0.6033
 E8    /KCAL :    -0.3229
 % E8        : 34.86
 ..... END OF 1-ELECTRON GRADIENT ......
 CPU     0: STEP CPU TIME=     0.03 TOTAL CPU TIME=          5.5 (      0.1 MIN)
 TOTAL WALL CLOCK TIME=          5.4 SECONDS, CPU UTILIZATION IS   101.46%
 MEMORY FOR GRID POINT CONTRIBUTIONS TO THE DFT GRADIENT=    206786 WORDS.
 CPU     0: STEP CPU TIME=     0.08 TOTAL CPU TIME=          5.6 (      0.1 MIN)
 TOTAL WALL CLOCK TIME=          5.5 SECONDS, CPU UTILIZATION IS   101.26%
 ...... END OF 2-ELECTRON GRADIENT ......
 CPU     0: STEP CPU TIME=     0.01 TOTAL CPU TIME=          5.6 (      0.1 MIN)
 TOTAL WALL CLOCK TIME=          5.5 SECONDS, CPU UTILIZATION IS   101.23%

          NSERCH=  3     ENERGY=    -189.5531873

                                 -----------------------
                                 GRADIENT (HARTREE/BOHR)
                                 -----------------------
        ATOM     ZNUC       DE/DX         DE/DY         DE/DZ
 --------------------------------------------------------------
    1  O            8.0     0.0011531    -0.0000962    -0.0013334
    2  C            6.0     0.0018381    -0.0001391    -0.0012674
    3  O            8.0    -0.0014478     0.0006598     0.0026745
    4  H            1.0    -0.0007282     0.0001488     0.0009739
    5  H            1.0    -0.0008151    -0.0005733    -0.0010476

          MAXIMUM GRADIENT = 0.0026745    RMS GRADIENT = 0.0011944

 NSERCH:   3  E=     -189.5531872521  GRAD. MAX=  0.0026745  R.M.S.=  0.0011944

          HESSIAN UPDATED USING THE BFGS FORMULA
             ACTUAL ENERGY CHANGE WAS  -0.0000198706
          PREDICTED ENERGY CHANGE WAS  -0.0000608635 RATIO=  0.326
          MIN SEARCH, CORRECT HESSIAN, TRYING PURE NR STEP
               NR STEP HAS LENGTH         =   0.020102
          RADIUS OF STEP TAKEN=   0.02010  CURRENT TRUST RADIUS=   0.05000

 BEGINNING GEOMETRY SEARCH POINT NSERCH=   4 ...

 COORDINATES OF ALL ATOMS ARE (ANGS)
   ATOM   CHARGE       X              Y              Z
 ------------------------------------------------------------
 O           8.0   0.5295076333   0.4954270214   0.8779347326
 C           6.0  -0.4006256994  -0.0810684093   0.1063001206
 O           8.0  -0.2289620847  -0.4583726387  -1.0204702422
 H           1.0   1.3430817692   0.5386502422   0.3448855110
 H           1.0  -1.3437916184  -0.1519062157   0.6674498780

          INTERNUCLEAR DISTANCES (ANGS.)
          ------------------------------

                1 O          2 C          3 O          4 H          5 H     

   1 O       0.0000000    1.3389977 *  2.2558705 *  0.9736080 *  1.9931368 *
   2 C       1.3389977 *  0.0000000    1.2005992 *  1.8658751 *  1.0997586 *
   3 O       2.2558705 *  1.2005992 *  0.0000000    2.3085868 *  2.0459328 *
   4 H       0.9736080 *  1.8658751 *  2.3085868 *  0.0000000    2.7928846 *
   5 H       1.9931368 *  1.0997586 *  2.0459328 *  2.7928846 *  0.0000000  

  * ... LESS THAN  3.000

 ...... END OF ONE-ELECTRON INTEGRALS ......
 CPU     0: STEP CPU TIME=     0.00 TOTAL CPU TIME=          5.6 (      0.1 MIN)
 TOTAL WALL CLOCK TIME=          5.5 SECONDS, CPU UTILIZATION IS   101.23%
  ...... END OF TWO-ELECTRON INTEGRALS .....
 CPU     0: STEP CPU TIME=     0.00 TOTAL CPU TIME=          5.6 (      0.1 MIN)
 TOTAL WALL CLOCK TIME=          5.5 SECONDS, CPU UTILIZATION IS   101.25%

          --------------------------
              R-PBE0 SCF CALCULATION
          --------------------------
         DENSITY MATRIX CONVERGENCE THRESHOLD=  2.00E-05
     COARSE -> FINE DFT GRID SWITCH THRESHOLD=  3.00E-04 (SWITCH IN $DFT)
                   HF -> DFT SWITCH THRESHOLD=  5.00E-03 (SWOFF IN $DFT)

 DIRECT SCF CALCULATION, SCHWRZ=T   FDIFF=T,  DIRTHR=  0.00E+00 NITDIR=10

 DFT CODE IS SWITCHING FROM THE FINE GRID NRAD= 96,  NLEB=  302
                      TO THE COARSE GRID NRAD0= 24, NLEB0=  110

                                                                                   NONZERO     BLOCKS
 ITER EX DEM     TOTAL ENERGY        E CHANGE  DENSITY CHANGE    DIIS ERROR      INTEGRALS    SKIPPED
          * * *   INITIATING DIIS PROCEDURE   * * *
   1  0  0     -189.5527107035  -189.5527107035   0.003139074   0.002427466         730638        173
   2  1  0     -189.5527366137    -0.0000259102   0.002498326   0.001602359         726548        411
   3  2  0     -189.5527357089     0.0000009048   0.001282613   0.001442105         723127        527
   4  3  0     -189.5527442939    -0.0000085850   0.000275446   0.000225701         721343        592
 DFT CODE IS SWITCHING BACK TO THE FINE GRID
          * * *   INITIATING DIIS PROCEDURE   * * *
   5  4  0     -189.5517154739     0.0010288200   0.001612532   0.001530870         730638        173
   6  5  0     -189.5517286543    -0.0000131804   0.001622838   0.001008974         725407        478
   7  6  0     -189.5517280446     0.0000006097   0.000765490   0.000951160         720757        602
   8  7  0     -189.5517307338    -0.0000026892   0.000231975   0.000160523         718966        680
   9  8  0     -189.5517308246    -0.0000000908   0.000044726   0.000065698         713534        888
  10  9  0     -189.5517308382    -0.0000000136   0.000012087   0.000010892         709288       1077
  11 10  0     -189.5517308388    -0.0000000006   0.000001957   0.000002899         703032       1240

          -----------------
          DENSITY CONVERGED
          -----------------
     TIME TO FORM FOCK OPERATORS=       0.9 SECONDS (       0.1 SEC/ITER)
     FOCK TIME ON FIRST ITERATION=       0.0, LAST ITERATION=       0.1
     TIME TO SOLVE SCF EQUATIONS=       0.2 SECONDS (       0.0 SEC/ITER)

          ----------------------------
          DFT-D PARAMETERS AND RESULTS
          ----------------------------
 C6 COEFFICIENTS USED:
       2 C6 FOR ELEMENT   1
  Z=  1 CN= 0.912     C6(AA)=    3.03
  Z=  1 CN= 0.000     C6(AA)=    7.59
       5 C6 FOR ELEMENT   6
  Z=  6 CN= 0.000     C6(AA)=   49.11
  Z=  6 CN= 0.987     C6(AA)=   43.25
  Z=  6 CN= 1.998     C6(AA)=   29.36
  Z=  6 CN= 2.999     C6(AA)=   25.78
  Z=  6 CN= 3.984     C6(AA)=   18.21
       3 C6 FOR ELEMENT   8
  Z=  8 CN= 0.000     C6(AA)=   15.51
  Z=  8 CN= 0.993     C6(AA)=   12.82
  Z=  8 CN= 1.989     C6(AA)=   10.37

 #          XYZ [AU]             R0(AA) [ANG.]  CN         C6(AA)     C8(AA)   C10(AA) [AU]
  1   1.00062   0.93622   1.65906    8  0.493  2.009        10.4       210.0      5191.7
  2  -0.75707  -0.15320   0.20088    6  0.590  3.011        25.7       741.9     26283.7
  3  -0.43268  -0.86620  -1.92841    8  0.493  1.019        12.8       258.2      6383.3
  4   2.53806   1.01790   0.65174    1  0.381  1.015         3.1        37.3       552.0
  5  -2.53940  -0.28706   1.26130    1  0.381  0.997         3.1        37.4       553.5

     MOLECULAR C6(AA) [AU] =       232.97

           DFT-D V3(BJ)

 FUNCTIONAL: PBE0    

 PARAMETERS
 S6       :    1.0000
 S8       :    1.2177
 A1       :    0.4145
 A2       :    4.8593
 K1-K3    :   16.0000    1.3333    4.0000

 EDISP /KCAL,AU:    -0.9263 -0.00147612

 E6    /KCAL :    -0.6034
 E8    /KCAL :    -0.3229
 % E8        : 34.86

 FINAL R-PBE0 ENERGY IS     -189.5532069589 AFTER  11 ITERATIONS
 DFT EXCHANGE + CORRELATION ENERGY =       -17.5391735086
 TOTAL ELECTRON NUMBER             =        23.9999789666
 GRIMME'S DISPERSION ENERGY                     =       -0.0014761200
 ENERGY WITHOUT GRIMME'S DISPERSION CORRECTION IS     -189.5517308388
 ...... END OF RHF CALCULATION ......
 CPU     0: STEP CPU TIME=     1.10 TOTAL CPU TIME=          6.7 (      0.1 MIN)
 TOTAL WALL CLOCK TIME=          6.6 SECONDS, CPU UTILIZATION IS   101.05%

          ----------------------------
          DFT-D PARAMETERS AND RESULTS
          ----------------------------
 C6 COEFFICIENTS USED:
       2 C6 FOR ELEMENT   1
  Z=  1 CN= 0.912     C6(AA)=    3.03
  Z=  1 CN= 0.000     C6(AA)=    7.59
       5 C6 FOR ELEMENT   6
  Z=  6 CN= 0.000     C6(AA)=   49.11
  Z=  6 CN= 0.987     C6(AA)=   43.25
  Z=  6 CN= 1.998     C6(AA)=   29.36
  Z=  6 CN= 2.999     C6(AA)=   25.78
  Z=  6 CN= 3.984     C6(AA)=   18.21
       3 C6 FOR ELEMENT   8
  Z=  8 CN= 0.000     C6(AA)=   15.51
  Z=  8 CN= 0.993     C6(AA)=   12.82
  Z=  8 CN= 1.989     C6(AA)=   10.37

 #          XYZ [AU]             R0(AA) [ANG.]  CN         C6(AA)     C8(AA)   C10(AA) [AU]
  1   1.00062   0.93622   1.65906    8  0.493  2.009        10.4       210.0      5191.7
  2  -0.75707  -0.15320   0.20088    6  0.590  3.011        25.7       741.9     26283.7
  3  -0.43268  -0.86620  -1.92841    8  0.493  1.019        12.8       258.2      6383.3
  4   2.53806   1.01790   0.65174    1  0.381  1.015         3.1        37.3       552.0
  5  -2.53940  -0.28706   1.26130    1  0.381  0.997         3.1        37.4       553.5

     MOLECULAR C6(AA) [AU] =       232.97

           DFT-D V3(BJ)

 FUNCTIONAL: PBE0    

 PARAMETERS
 S6       :    1.0000
 S8       :    1.2177
 A1       :    0.4145
 A2       :    4.8593
 K1-K3    :   16.0000    1.3333    4.0000

 EDISP /KCAL,AU:    -0.9263 -0.00147612

 E6    /KCAL :    -0.6034
 E8    /KCAL :    -0.3229
 % E8        : 34.86
 ..... END OF 1-ELECTRON GRADIENT ......
 CPU     0: STEP CPU TIME=     0.04 TOTAL CPU TIME=          6.7 (      0.1 MIN)
 TOTAL WALL CLOCK TIME=          6.7 SECONDS, CPU UTILIZATION IS   100.97%
 MEMORY FOR GRID POINT CONTRIBUTIONS TO THE DFT GRADIENT=    206786 WORDS.
 CPU     0: STEP CPU TIME=     0.07 TOTAL CPU TIME=          6.8 (      0.1 MIN)
 TOTAL WALL CLOCK TIME=          6.7 SECONDS, CPU UTILIZATION IS   100.58%
 ...... END OF 2-ELECTRON GRADIENT ......
 CPU     0: STEP CPU TIME=     0.01 TOTAL CPU TIME=          6.8 (      0.1 MIN)
 TOTAL WALL CLOCK TIME=          6.8 SECONDS, CPU UTILIZATION IS   100.57%

          NSERCH=  4     ENERGY=    -189.5532070

                                 -----------------------
                                 GRADIENT (HARTREE/BOHR)
                                 -----------------------
        ATOM     ZNUC       DE/DX         DE/DY         DE/DZ
 --------------------------------------------------------------
    1  O            8.0     0.0000774     0.0001506     0.0001712
    2  C            6.0     0.0000753    -0.0008038    -0.0016133
    3  O            8.0    -0.0000871     0.0003780     0.0008566
    4  H            1.0    -0.0002528    -0.0000141     0.0001669
    5  H            1.0     0.0001871     0.0002893     0.0004186

          MAXIMUM GRADIENT = 0.0016133    RMS GRADIENT = 0.0005527

 NSERCH:   4  E=     -189.5532069589  GRAD. MAX=  0.0016133  R.M.S.=  0.0005527

          HESSIAN UPDATED USING THE BFGS FORMULA
             ACTUAL ENERGY CHANGE WAS  -0.0000197068
          PREDICTED ENERGY CHANGE WAS  -0.0000257737 RATIO=  0.765
          MIN SEARCH, CORRECT HESSIAN, TRYING PURE NR STEP
               NR STEP HAS LENGTH         =   0.008547
          RADIUS OF STEP TAKEN=   0.00855  CURRENT TRUST RADIUS=   0.05000

 BEGINNING GEOMETRY SEARCH POINT NSERCH=   5 ...

 COORDINATES OF ALL ATOMS ARE (ANGS)
   ATOM   CHARGE       X              Y              Z
 ------------------------------------------------------------
 O           8.0   0.5304084258   0.4959353556   0.8785512312
 C           6.0  -0.4005742635  -0.0802102427   0.1085123978
 O           8.0  -0.2285646150  -0.4579172825  -1.0195964589
 H           1.0   1.3435391621   0.5380962529   0.3430717872
 H           1.0  -1.3455987093  -0.1531740833   0.6655610426

          INTERNUCLEAR DISTANCES (ANGS.)
          ------------------------------

                1 O          2 C          3 O          4 H          5 H     

   1 O       0.0000000    1.3385187 *  2.2558456 *  0.9745242 *  1.9965246 *
   2 C       1.3385187 *  0.0000000    1.2020314 *  1.8652755 *  1.0994081 *
   3 O       2.2558456 *  1.2020314 *  0.0000000    2.3066031 *  2.0446001 *
   4 H       0.9745242 *  1.8652755 *  2.3066031 *  0.0000000    2.7952310 *
   5 H       1.9965246 *  1.0994081 *  2.0446001 *  2.7952310 *  0.0000000  

  * ... LESS THAN  3.000

 ...... END OF ONE-ELECTRON INTEGRALS ......
 CPU     0: STEP CPU TIME=     0.00 TOTAL CPU TIME=          6.8 (      0.1 MIN)
 TOTAL WALL CLOCK TIME=          6.8 SECONDS, CPU UTILIZATION IS   100.57%
  ...... END OF TWO-ELECTRON INTEGRALS .....
 CPU     0: STEP CPU TIME=     0.03 TOTAL CPU TIME=          6.8 (      0.1 MIN)
 TOTAL WALL CLOCK TIME=          6.8 SECONDS, CPU UTILIZATION IS   100.56%

          --------------------------
              R-PBE0 SCF CALCULATION
          --------------------------
         DENSITY MATRIX CONVERGENCE THRESHOLD=  2.00E-05
     COARSE -> FINE DFT GRID SWITCH THRESHOLD=  3.00E-04 (SWITCH IN $DFT)
                   HF -> DFT SWITCH THRESHOLD=  5.00E-03 (SWOFF IN $DFT)

 DIRECT SCF CALCULATION, SCHWRZ=T   FDIFF=T,  DIRTHR=  0.00E+00 NITDIR=10

 DFT CODE IS SWITCHING FROM THE FINE GRID NRAD= 96,  NLEB=  302
                      TO THE COARSE GRID NRAD0= 24, NLEB0=  110

                                                                                   NONZERO     BLOCKS
 ITER EX DEM     TOTAL ENERGY        E CHANGE  DENSITY CHANGE    DIIS ERROR      INTEGRALS    SKIPPED
          * * *   INITIATING DIIS PROCEDURE   * * *
   1  0  0     -189.5527471283  -189.5527471283   0.001913976   0.001548935         730633        173
   2  1  0     -189.5527638204    -0.0000166921   0.001473427   0.000887148         725560        452
   3  2  0     -189.5527638626    -0.0000000422   0.000737091   0.000867634         719879        610
   4  3  0     -189.5527656516    -0.0000017890   0.000187542   0.000123951         717530        715
 DFT CODE IS SWITCHING BACK TO THE FINE GRID
          * * *   INITIATING DIIS PROCEDURE   * * *
   5  4  0     -189.5517178244     0.0010478272   0.001648828   0.001491614         730633        173
   6  5  0     -189.5517312992    -0.0000134748   0.001468972   0.000896428         725365        478
   7  6  0     -189.5517306663     0.0000006329   0.000723836   0.000890708         720267        621
   8  7  0     -189.5517328934    -0.0000022271   0.000220664   0.000138450         718343        696
   9  8  0     -189.5517329667    -0.0000000733   0.000044944   0.000066351         713328        900
  10  9  0     -189.5517329806    -0.0000000140   0.000012468   0.000011427         709278       1078
  11 10  0     -189.5517329813    -0.0000000007   0.000001992   0.000002933         703154       1239

          -----------------
          DENSITY CONVERGED
          -----------------
     TIME TO FORM FOCK OPERATORS=       0.9 SECONDS (       0.1 SEC/ITER)
     FOCK TIME ON FIRST ITERATION=       0.1, LAST ITERATION=       0.1
     TIME TO SOLVE SCF EQUATIONS=       0.1 SECONDS (       0.0 SEC/ITER)

          ----------------------------
          DFT-D PARAMETERS AND RESULTS
          ----------------------------
 C6 COEFFICIENTS USED:
       2 C6 FOR ELEMENT   1
  Z=  1 CN= 0.912     C6(AA)=    3.03
  Z=  1 CN= 0.000     C6(AA)=    7.59
       5 C6 FOR ELEMENT   6
  Z=  6 CN= 0.000     C6(AA)=   49.11
  Z=  6 CN= 0.987     C6(AA)=   43.25
  Z=  6 CN= 1.998     C6(AA)=   29.36
  Z=  6 CN= 2.999     C6(AA)=   25.78
  Z=  6 CN= 3.984     C6(AA)=   18.21
       3 C6 FOR ELEMENT   8
  Z=  8 CN= 0.000     C6(AA)=   15.51
  Z=  8 CN= 0.993     C6(AA)=   12.82
  Z=  8 CN= 1.989     C6(AA)=   10.37

 #          XYZ [AU]             R0(AA) [ANG.]  CN         C6(AA)     C8(AA)   C10(AA) [AU]
  1   1.00233   0.93718   1.66022    8  0.493  2.009        10.4       210.0      5191.7
  2  -0.75698  -0.15158   0.20506    6  0.590  3.012        25.7       741.9     26283.4
  3  -0.43192  -0.86534  -1.92676    8  0.493  1.019        12.8       258.2      6383.3
  4   2.53892   1.01685   0.64831    1  0.381  1.015         3.1        37.3       552.0
  5  -2.54281  -0.28946   1.25773    1  0.381  0.997         3.1        37.4       553.5

     MOLECULAR C6(AA) [AU] =       232.97

           DFT-D V3(BJ)

 FUNCTIONAL: PBE0    

 PARAMETERS
 S6       :    1.0000
 S8       :    1.2177
 A1       :    0.4145
 A2       :    4.8593
 K1-K3    :   16.0000    1.3333    4.0000

 EDISP /KCAL,AU:    -0.9263 -0.00147608

 E6    /KCAL :    -0.6034
 E8    /KCAL :    -0.3229
 % E8        : 34.86

 FINAL R-PBE0 ENERGY IS     -189.5532090633 AFTER  11 ITERATIONS
 DFT EXCHANGE + CORRELATION ENERGY =       -17.5382575332
 TOTAL ELECTRON NUMBER             =        23.9999765824
 GRIMME'S DISPERSION ENERGY                     =       -0.0014760820
 ENERGY WITHOUT GRIMME'S DISPERSION CORRECTION IS     -189.5517329813
 ...... END OF RHF CALCULATION ......
 CPU     0: STEP CPU TIME=     1.08 TOTAL CPU TIME=          7.9 (      0.1 MIN)
 TOTAL WALL CLOCK TIME=          7.9 SECONDS, CPU UTILIZATION IS   100.36%

          ----------------------------
          DFT-D PARAMETERS AND RESULTS
          ----------------------------
 C6 COEFFICIENTS USED:
       2 C6 FOR ELEMENT   1
  Z=  1 CN= 0.912     C6(AA)=    3.03
  Z=  1 CN= 0.000     C6(AA)=    7.59
       5 C6 FOR ELEMENT   6
  Z=  6 CN= 0.000     C6(AA)=   49.11
  Z=  6 CN= 0.987     C6(AA)=   43.25
  Z=  6 CN= 1.998     C6(AA)=   29.36
  Z=  6 CN= 2.999     C6(AA)=   25.78
  Z=  6 CN= 3.984     C6(AA)=   18.21
       3 C6 FOR ELEMENT   8
  Z=  8 CN= 0.000     C6(AA)=   15.51
  Z=  8 CN= 0.993     C6(AA)=   12.82
  Z=  8 CN= 1.989     C6(AA)=   10.37

 #          XYZ [AU]             R0(AA) [ANG.]  CN         C6(AA)     C8(AA)   C10(AA) [AU]
  1   1.00233   0.93718   1.66022    8  0.493  2.009        10.4       210.0      5191.7
  2  -0.75698  -0.15158   0.20506    6  0.590  3.012        25.7       741.9     26283.4
  3  -0.43192  -0.86534  -1.92676    8  0.493  1.019        12.8       258.2      6383.3
  4   2.53892   1.01685   0.64831    1  0.381  1.015         3.1        37.3       552.0
  5  -2.54281  -0.28946   1.25773    1  0.381  0.997         3.1        37.4       553.5

     MOLECULAR C6(AA) [AU] =       232.97

           DFT-D V3(BJ)

 FUNCTIONAL: PBE0    

 PARAMETERS
 S6       :    1.0000
 S8       :    1.2177
 A1       :    0.4145
 A2       :    4.8593
 K1-K3    :   16.0000    1.3333    4.0000

 EDISP /KCAL,AU:    -0.9263 -0.00147608

 E6    /KCAL :    -0.6034
 E8    /KCAL :    -0.3229
 % E8        : 34.86
 ..... END OF 1-ELECTRON GRADIENT ......
 CPU     0: STEP CPU TIME=     0.03 TOTAL CPU TIME=          7.9 (      0.1 MIN)
 TOTAL WALL CLOCK TIME=          7.9 SECONDS, CPU UTILIZATION IS   100.19%
 MEMORY FOR GRID POINT CONTRIBUTIONS TO THE DFT GRADIENT=    206786 WORDS.
 CPU     0: STEP CPU TIME=     0.07 TOTAL CPU TIME=          8.0 (      0.1 MIN)
 TOTAL WALL CLOCK TIME=          8.0 SECONDS, CPU UTILIZATION IS    99.96%
 ...... END OF 2-ELECTRON GRADIENT ......
 CPU     0: STEP CPU TIME=     0.01 TOTAL CPU TIME=          8.0 (      0.1 MIN)
 TOTAL WALL CLOCK TIME=          8.0 SECONDS, CPU UTILIZATION IS    99.94%

          NSERCH=  5     ENERGY=    -189.5532091

                                 -----------------------
                                 GRADIENT (HARTREE/BOHR)
                                 -----------------------
        ATOM     ZNUC       DE/DX         DE/DY         DE/DZ
 --------------------------------------------------------------
    1  O            8.0    -0.0003042     0.0000967     0.0003331
    2  C            6.0    -0.0002668     0.0001705     0.0012153
    3  O            8.0     0.0001229    -0.0003052    -0.0011037
    4  H            1.0     0.0004681     0.0000252    -0.0003029
    5  H            1.0    -0.0000200     0.0000129    -0.0001417

          MAXIMUM GRADIENT = 0.0012153    RMS GRADIENT = 0.0004795

 NSERCH:   5  E=     -189.5532090633  GRAD. MAX=  0.0012153  R.M.S.=  0.0004795

          HESSIAN UPDATED USING THE BFGS FORMULA
             ACTUAL ENERGY CHANGE WAS  -0.0000021044
          PREDICTED ENERGY CHANGE WAS  -0.0000047464 RATIO=  0.443
          MIN SEARCH, CORRECT HESSIAN, TRYING PURE NR STEP
               NR STEP HAS LENGTH         =   0.002234
          RADIUS OF STEP TAKEN=   0.00223  CURRENT TRUST RADIUS=   0.05000

 BEGINNING GEOMETRY SEARCH POINT NSERCH=   6 ...

 COORDINATES OF ALL ATOMS ARE (ANGS)
   ATOM   CHARGE       X              Y              Z
 ------------------------------------------------------------
 O           8.0   0.5303309875   0.4957543699   0.8781382615
 C           6.0  -0.4004893658  -0.0804062905   0.1079298729
 O           8.0  -0.2288089489  -0.4579613517  -1.0195168756
 H           1.0   1.3433814560   0.5382804746   0.3436798450
 H           1.0  -1.3452041288  -0.1529372022   0.6658688963

          INTERNUCLEAR DISTANCES (ANGS.)
          ------------------------------

                1 O          2 C          3 O          4 H          5 H     

   1 O       0.0000000    1.3385098 *  2.2554295 *  0.9739124 *  1.9958685 *
   2 C       1.3385098 *  0.0000000    1.2013152 *  1.8653249 *  1.0995648 *
   3 O       2.2554295 *  1.2013152 *  0.0000000    2.3070730 *  2.0444811 *
   4 H       0.9739124 *  1.8653249 *  2.3070730 *  0.0000000    2.7946521 *
   5 H       1.9958685 *  1.0995648 *  2.0444811 *  2.7946521 *  0.0000000  

  * ... LESS THAN  3.000

 ...... END OF ONE-ELECTRON INTEGRALS ......
 CPU     0: STEP CPU TIME=     0.00 TOTAL CPU TIME=          8.0 (      0.1 MIN)
 TOTAL WALL CLOCK TIME=          8.0 SECONDS, CPU UTILIZATION IS    99.94%
  ...... END OF TWO-ELECTRON INTEGRALS .....
 CPU     0: STEP CPU TIME=     0.00 TOTAL CPU TIME=          8.0 (      0.1 MIN)
 TOTAL WALL CLOCK TIME=          8.0 SECONDS, CPU UTILIZATION IS    99.94%

          --------------------------
              R-PBE0 SCF CALCULATION
          --------------------------
         DENSITY MATRIX CONVERGENCE THRESHOLD=  2.00E-05
     COARSE -> FINE DFT GRID SWITCH THRESHOLD=  3.00E-04 (SWITCH IN $DFT)
                   HF -> DFT SWITCH THRESHOLD=  5.00E-03 (SWOFF IN $DFT)

 DIRECT SCF CALCULATION, SCHWRZ=T   FDIFF=T,  DIRTHR=  0.00E+00 NITDIR=10

 DFT CODE IS SWITCHING FROM THE FINE GRID NRAD= 96,  NLEB=  302
                      TO THE COARSE GRID NRAD0= 24, NLEB0=  110

                                                                                   NONZERO     BLOCKS
 ITER EX DEM     TOTAL ENERGY        E CHANGE  DENSITY CHANGE    DIIS ERROR      INTEGRALS    SKIPPED
          * * *   INITIATING DIIS PROCEDURE   * * *
   1  0  0     -189.5527434166  -189.5527434166   0.001835888   0.001685397         730637        173
   2  1  0     -189.5527580440    -0.0000146273   0.001476363   0.000909362         725335        467
   3  2  0     -189.5527565599     0.0000014841   0.000741963   0.000941805         721056        610
   4  3  0     -189.5527600515    -0.0000034916   0.000174993   0.000129055         719657        660
 DFT CODE IS SWITCHING BACK TO THE FINE GRID
          * * *   INITIATING DIIS PROCEDURE   * * *
   5  4  0     -189.5517189068     0.0010411447   0.001635741   0.001519053         730637        173
   6  5  0     -189.5517321091    -0.0000132023   0.001585514   0.000979734         725402        478
   7  6  0     -189.5517314611     0.0000006481   0.000754580   0.000938114         720703        605
   8  7  0     -189.5517340644    -0.0000026033   0.000228948   0.000154270         718913        682
   9  8  0     -189.5517341512    -0.0000000869   0.000044807   0.000065786         713498        891
  10  9  0     -189.5517341647    -0.0000000135   0.000012310   0.000011161         709280       1074
  11 10  0     -189.5517341653    -0.0000000006   0.000001964   0.000002883         703118       1240

          -----------------
          DENSITY CONVERGED
          -----------------
     TIME TO FORM FOCK OPERATORS=       0.9 SECONDS (       0.1 SEC/ITER)
     FOCK TIME ON FIRST ITERATION=       0.1, LAST ITERATION=       0.1
     TIME TO SOLVE SCF EQUATIONS=       0.2 SECONDS (       0.0 SEC/ITER)

          ----------------------------
          DFT-D PARAMETERS AND RESULTS
          ----------------------------
 C6 COEFFICIENTS USED:
       2 C6 FOR ELEMENT   1
  Z=  1 CN= 0.912     C6(AA)=    3.03
  Z=  1 CN= 0.000     C6(AA)=    7.59
       5 C6 FOR ELEMENT   6
  Z=  6 CN= 0.000     C6(AA)=   49.11
  Z=  6 CN= 0.987     C6(AA)=   43.25
  Z=  6 CN= 1.998     C6(AA)=   29.36
  Z=  6 CN= 2.999     C6(AA)=   25.78
  Z=  6 CN= 3.984     C6(AA)=   18.21
       3 C6 FOR ELEMENT   8
  Z=  8 CN= 0.000     C6(AA)=   15.51
  Z=  8 CN= 0.993     C6(AA)=   12.82
  Z=  8 CN= 1.989     C6(AA)=   10.37

 #          XYZ [AU]             R0(AA) [ANG.]  CN         C6(AA)     C8(AA)   C10(AA) [AU]
  1   1.00218   0.93684   1.65944    8  0.493  2.009        10.4       210.0      5191.7
  2  -0.75682  -0.15195   0.20396    6  0.590  3.012        25.7       741.9     26283.4
  3  -0.43239  -0.86542  -1.92661    8  0.493  1.019        12.8       258.2      6383.3
  4   2.53862   1.01720   0.64946    1  0.381  1.015         3.1        37.3       552.0
  5  -2.54207  -0.28901   1.25831    1  0.381  0.997         3.1        37.4       553.5

     MOLECULAR C6(AA) [AU] =       232.97

           DFT-D V3(BJ)

 FUNCTIONAL: PBE0    

 PARAMETERS
 S6       :    1.0000
 S8       :    1.2177
 A1       :    0.4145
 A2       :    4.8593
 K1-K3    :   16.0000    1.3333    4.0000

 EDISP /KCAL,AU:    -0.9263 -0.00147610

 E6    /KCAL :    -0.6034
 E8    /KCAL :    -0.3229
 % E8        : 34.86

 FINAL R-PBE0 ENERGY IS     -189.5532102688 AFTER  11 ITERATIONS
 DFT EXCHANGE + CORRELATION ENERGY =       -17.5388990234
 TOTAL ELECTRON NUMBER             =        23.9999771329
[...]
  2  -0.75699  -0.15125   0.20367    6  0.590  3.012        25.7       741.9     26283.4
  3  -0.43226  -0.86562  -1.92660    8  0.493  1.019        12.8       258.2      6383.3
  4   2.53859   1.01699   0.64946    1  0.381  1.015         3.1        37.3       552.0
  5  -2.54195  -0.28931   1.25851    1  0.381  0.997         3.1        37.4       553.5

     MOLECULAR C6(AA) [AU] =       232.97

           DFT-D V3(BJ)

 FUNCTIONAL: PBE0    

 PARAMETERS
 S6       :    1.0000
 S8       :    1.2177
 A1       :    0.4145
 A2       :    4.8593
 K1-K3    :   16.0000    1.3333    4.0000

 EDISP /KCAL,AU:    -0.9263 -0.00147610

 E6    /KCAL :    -0.6034
 E8    /KCAL :    -0.3229
 % E8        : 34.86

          ---------------
          ENERGY GRADIENT
          ---------------

 UNITS ARE HARTREE/BOHR    E'X               E'Y               E'Z 
    1 O                0.000011706       0.000002377       0.000012181
    2 C               -0.000004948       0.000000049       0.000000779
    3 O               -0.000008165      -0.000002470      -0.000025302
    4 H                0.000019444       0.000007893       0.000009558
    5 H               -0.000018037      -0.000007849       0.000002784

          -------------------------------
          CARTESIAN FORCE CONSTANT MATRIX
          -------------------------------

                                   1                          2
                               O                          C         
                          X        Y        Z        X        Y        Z
  1   O            X 0.583825 0.129754-0.088870-0.245450-0.086665-0.082796
                   Y 0.129754 0.125778 0.112882-0.075357-0.111696-0.066451
                   Z-0.088870 0.112882 0.410497-0.052964-0.057420-0.172283
  2   C            X-0.245450-0.075357-0.052964 0.682736 0.086006-0.160356
                   Y-0.086665-0.111696-0.057420 0.086006 0.320767 0.257821
                   Z-0.082796-0.066451-0.172283-0.160356 0.257821 0.999736
  3   O            X 0.026848-0.020045-0.049676-0.144196 0.024838 0.120392
                   Y-0.014776 0.006794-0.050360 0.027894-0.148102-0.215842
                   Z-0.035853-0.046160-0.062072 0.128133-0.213515-0.735752
  4   H            X-0.334443-0.025543 0.182064-0.046947-0.008010 0.021190
                   Y-0.008737-0.026332-0.008119-0.025602 0.003281 0.012754
                   Z 0.226255 0.005249-0.186759-0.024886-0.001133 0.023005
  5   H            X-0.030779-0.008809 0.009447-0.246144-0.016168 0.101570
                   Y-0.019576 0.005457 0.003016-0.012940-0.064250 0.011719
                   Z-0.018735-0.005519 0.010617 0.110072 0.014248-0.114706

                                   3                          4
                               O                          H         
                          X        Y        Z        X        Y        Z
  3   O            X 0.102130-0.019237-0.107274 0.008366 0.006326 0.003783
                   Y-0.019237 0.127879 0.272243 0.006053-0.004945 0.002185
                   Z-0.107274 0.272243 0.828841 0.003232 0.002069-0.004828
  4   H            X 0.008366 0.006053 0.003232 0.375109 0.031638-0.202627
                   Y 0.006326-0.004945 0.002069 0.031638 0.023885-0.002767
                   Z 0.003783 0.002185-0.004828-0.202627-0.002767 0.169128
  5   H            X 0.006852 0.000066 0.011763-0.002085-0.003626-0.002525
                   Y 0.008116 0.018375-0.014637-0.004137 0.004113-0.003533
                   Z 0.032775-0.008226-0.026188-0.003858-0.003937-0.000545

                                   5
                               H         
                          X        Y        Z
  5   H            X 0.272156 0.028537-0.120254
                   Y 0.028537 0.036305 0.003435
                   Z-0.120254 0.003435 0.130823

          ------------------------          ----------------
          DIPOLE DERIVATIVE TENSOR          (DEBYE/ANGSTROM)
          ------------------------          ----------------

        ATOM                 MU-X           MU-Y           MU-Z
     O          D/DX    -3.874060032   -1.501183116   -2.375325340
                D/DY    -1.153685711   -2.720883685   -1.212057512
                D/DZ    -1.464540976   -0.936443333   -3.200687338
     C          D/DX     5.535329060    1.584375065    0.956941437
                D/DY     1.658780117    2.915041615    2.369442420
                D/DZ     1.152221629    2.428645593    6.959770273
     O          D/DX    -2.652392978    0.020108154    0.744499824
                D/DY    -0.510115309   -2.297077250   -0.947542538
                D/DZ    -0.645416827   -1.368428659   -4.855444641
     H          D/DX     1.409604135    0.000840961    0.273051998
                D/DY     0.079999211    1.715918924   -0.154841724
                D/DZ     0.480640071   -0.092021884    1.127863819
     H          D/DX    -0.418499601   -0.104140619    0.400854909
                D/DY    -0.075005717    0.387045310   -0.054943788
                D/DZ     0.477129446   -0.031747011   -0.031496843

          --------------------------------------------------------
          NORMAL COORDINATE ANALYSIS IN THE HARMONIC APPROXIMATION
          --------------------------------------------------------

          ATOMIC WEIGHTS (AMU)

    1     O                15.99491
    2     C                12.00000
    3     O                15.99491
    4     H                 1.00782
    5     H                 1.00782

 MODES    1 TO    6 ARE TAKEN AS ROTATIONS AND TRANSLATIONS.

 ANALYZING SYMMETRY OF NORMAL MODES...

     FREQUENCIES IN CM**-1, IR INTENSITIES IN DEBYE**2/AMU-ANGSTROM**2,
     REDUCED MASSES IN AMU.

                            1           2           3           4           5
       FREQUENCY:        30.67       18.30        0.11        0.10        0.12  
        SYMMETRY:         A           A           A           A           A   
    REDUCED MASS:      3.14332     2.55513     9.20287     9.20512     9.20949
    IR INTENSITY:      0.02450     0.02081     0.00000     0.00000     0.00000

  1   O            X  0.09740582 -0.07644675  0.07622203 -0.06386822  0.10888623
                   Y  0.00931147 -0.05466737  0.10978024  0.09770089 -0.02009422
                   Z -0.06404719  0.07686586 -0.06370875  0.09039835  0.09784840
  2   C            X -0.02158178 -0.03999584  0.07643240 -0.06365212  0.10865463
                   Y  0.11194313  0.09406820  0.10855532  0.09670212 -0.01880938
                   Z  0.00305888 -0.07837522 -0.06304722  0.09088391  0.09716801
  3   O            X -0.08594811  0.11346455  0.07608107 -0.06388730  0.10903223
                   Y -0.10238024 -0.01774980  0.10893721  0.09706083 -0.01929377
                   Z  0.06516015 -0.01752199 -0.06322883  0.09072774  0.09738796
  4   H            X  0.11991595  0.04401798  0.07574064 -0.06424324  0.10940749
                   Y -0.26625914 -0.26645661  0.11100214  0.09874146 -0.02145556
                   Z -0.05169484  0.24334229 -0.06434421  0.08991049  0.09853346
  5   H            X -0.05154519 -0.17198114  0.07697530 -0.06322674  0.10806635
                   Y  0.42271455  0.33421038  0.10714666  0.09550364 -0.01724379
                   Z -0.00684322 -0.27039875 -0.06231247  0.09144685  0.09637720

 TRANS. SAYVETZ    X -0.00681047 -0.01681817  3.50717402 -2.93573089  5.00861725
                   Y  0.01237072  0.03879623  5.02088552  4.47138679 -0.89472198
                   Z -0.00448785 -0.01857103 -2.91456956  4.17047887  4.48524001
               TOTAL  0.01481749  0.04618313  6.78264526  6.78267717  6.78263607

   ROT. SAYVETZ    X -5.95600044  2.28975518 -0.02942972 -0.02148767  0.02762491
                   Y  6.81411034 -9.19323192  0.02003723  0.01230861 -0.02065767
                   Z -4.75066385 -0.59732622  0.02599050  0.02250619 -0.02718218
               TOTAL 10.22129385  9.49290738  0.04408067  0.03346267  0.04391749

                            6           7           8           9          10
       FREQUENCY:        13.38      632.41      717.02     1065.17     1172.41  
        SYMMETRY:         A           A           A           A           A   
    REDUCED MASS:     10.36526     3.35217     1.26256     1.57003     2.73789
    IR INTENSITY:      0.05016     1.27989     3.76941     0.02111     5.49911

  1   O            X -0.07828436  0.00530074  0.02266405 -0.00747514  0.10054498
                   Y  0.15287921  0.04218718 -0.07586412  0.02465644  0.07452405
                   Z -0.03892272  0.10744377  0.02828410 -0.00941878  0.11591977
  2   C            X  0.00422483  0.10734096 -0.02220177  0.04624376 -0.09974114
                   Y -0.02657548  0.00734950  0.07202589 -0.15277314 -0.03964693
                   Z -0.00446710 -0.06674599 -0.02717602  0.05826819 -0.02504472
  3   O            X  0.08030549 -0.10528093  0.01174373 -0.01204477 -0.00143079
                   Y -0.14188641 -0.06281334 -0.03659452  0.03985088 -0.02337409
                   Z  0.04576607 -0.08077180  0.01442930 -0.01517631 -0.06003656
  4   H            X -0.06346275  0.17934107 -0.23599848 -0.03135615 -0.18941204
                   Y  0.16776426  0.20789451  0.77785981  0.10350400 -0.19892034
                   Z -0.01520030  0.39219476 -0.29744573 -0.03949543 -0.37457974
  5   H            X -0.00858045  0.12932515 -0.04573172 -0.20946519 -0.19600017
                   Y -0.05192112  0.03195448  0.14935185  0.69176467 -0.14079795
                   Z -0.02947053 -0.02076504 -0.05687004 -0.26395250 -0.21412220

 TRANS. SAYVETZ    X  0.01041881 -0.00000102 -0.00000678  0.00000020  0.00000090
                   Y -0.02632730  0.00000628  0.00001194  0.00000269 -0.00000082
                   Z  0.01083322  0.00000007 -0.00000346 -0.00000051  0.00000178
               TOTAL  0.03031562  0.00000637  0.00001416  0.00000274  0.00000216

   ROT. SAYVETZ    X -9.62520657  0.00753755 -0.00347689  0.00150897 -0.00049720
                   Y -3.73162062 -0.01482575 -0.01219914 -0.00023478  0.00569960
                   Z  6.59037122  0.00538739  0.00143908  0.00033169 -0.00243406
               TOTAL 12.24755432  0.01748261  0.01276631  0.00156273  0.00621750

                           11          12          13          14          15
       FREQUENCY:      1340.85     1426.47     1890.96     3112.79     3728.89  
        SYMMETRY:         A           A           A           A           A   
    REDUCED MASS:      1.96320     1.14948     8.33489     1.09332     1.06362
    IR INTENSITY:      0.39631     0.12366     7.84336     1.25304     1.22063

  1   O            X -0.07496241 -0.02130201 -0.00421842  0.00085126 -0.05015678
                   Y -0.01446252  0.00773785 -0.00971260 -0.00016850 -0.00337193
                   Z  0.02184619  0.03726979 -0.02217040 -0.00112309  0.03098692
  2   C            X  0.17131308 -0.02891314 -0.01409410 -0.07107733 -0.00376286
                   Y  0.06152633 -0.01105071  0.07534628 -0.00440437 -0.00056050
                   Z  0.02527033 -0.00595642  0.20875879  0.04485877  0.00151471
  3   O            X -0.03580937  0.03051725  0.02161932  0.00120444  0.00034687
                   Y -0.01060537 -0.01604186 -0.04626553 -0.00121057  0.00031792
                   Z  0.00047675 -0.06635319 -0.13846085 -0.00412015  0.00056047
  4   H            X -0.35223865 -0.15025823  0.06099034 -0.01220849  0.82147421
                   Y -0.28530998 -0.11774000  0.05305130  0.00317348  0.05485222
                   Z -0.46969559 -0.19021325  0.09135825  0.01802673 -0.50848508
  5   H            X  0.07046988  0.34826970 -0.16933959  0.82588920  0.01384863
                   Y -0.04942847  0.38111056 -0.06177373  0.07115540  0.00029113
                   Z -0.18547549  0.72271070 -0.02768031 -0.46893880 -0.01022979

 TRANS. SAYVETZ    X -0.00000125  0.00000028 -0.00000041  0.00000056 -0.00000016
                   Y -0.00000050  0.00000116 -0.00000040  0.00000006  0.00000030
                   Z -0.00000023  0.00000089 -0.00000069 -0.00000055  0.00000035
               TOTAL  0.00000137  0.00000149  0.00000090  0.00000079  0.00000049

   ROT. SAYVETZ    X  0.00370741  0.00327062 -0.00076572 -0.00038907  0.00004051
                   Y  0.00044360 -0.00528950  0.00225334  0.00083035 -0.00031623
                   Z -0.00070179  0.00256730 -0.00118268 -0.00025453  0.00007764
               TOTAL  0.00379924  0.00672806  0.00265756  0.00095165  0.00032813

 REFERENCE ON SAYVETZ CONDITIONS - A. SAYVETZ, J.CHEM.PHYS., 7, 383-389(1939).

 NOTE - THE MODES J,K ARE ORTHONORMALIZED ACCORDING TO
 SUM ON I   M(I) * (X(I,J)*X(I,K) + Y(I,J)*Y(I,K) + Z(I,J)*Z(I,K)) = DELTA(J,K)

  MODE FREQ(CM**-1)  SYMMETRY  RED. MASS  IR INTENS.
     1      30.672    A        3.143318    0.024505
     2      18.297    A        2.555126    0.020813
     3       0.108    A        9.202875    0.000001
     4       0.096    A        9.205117    0.000000
     5       0.122    A        9.209488    0.000001
     6      13.379    A       10.365256    0.050158
     7     632.410    A        3.352171    1.279887
     8     717.022    A        1.262562    3.769406
     9    1065.171    A        1.570030    0.021112
    10    1172.408    A        2.737886    5.499107
    11    1340.852    A        1.963205    0.396311
    12    1426.468    A        1.149482    0.123659
    13    1890.964    A        8.334891    7.843362
    14    3112.785    A        1.093315    1.253043
    15    3728.891    A        1.063618    1.220634

     -------------------------------
     THERMOCHEMISTRY AT T=  298.15 K
     -------------------------------

 USING IDEAL GAS, RIGID ROTOR, HARMONIC NORMAL MODE APPROXIMATIONS.
 P=  1.01325E+05 PASCAL.
 V=  4.06261E-26 M**3.
 ALL FREQUENCIES ARE SCALED BY   1.00000
 THE MOMENTS OF INERTIA ARE (IN AMU*BOHR**2)
             23.16176           149.13739           172.29915
 THE ROTATIONAL SYMMETRY NUMBER IS  1.0
 THE ROTATIONAL CONSTANTS ARE (IN GHZ)
     77.84763    12.09012    10.46487
      7 -     15 VIBRATIONAL MODES ARE USED IN THERMOCHEMISTRY.
 THE HARMONIC ZERO POINT ENERGY IS (SCALED BY   1.000)
        0.034371 HARTREE/MOLECULE     7543.485841 CM**-1/MOLECULE 
       21.567930 KCAL/MOL               90.240219 KJ/MOL

               Q               LN Q
 ELEC.     1.00000E+00       0.000000
 TRANS.    1.22650E+07      16.322261
 ROT.      8.73297E+03       9.074861
 VIB.      1.09681E+00       0.092410
 TOT.      1.17480E+11      25.489532

              E         H         G         CV        CP        S
           KJ/MOL    KJ/MOL    KJ/MOL   J/MOL-K   J/MOL-K   J/MOL-K
 ELEC.      0.000     0.000     0.000     0.000     0.000     0.000
 TRANS.     3.718     6.197   -40.462    12.472    20.786   156.496
 ROT.       3.718     3.718   -22.496    12.472    12.472    87.924
 VIB.      91.063    91.063    90.011    10.626    10.626     3.528
 TOTAL     98.500   100.979    27.053    35.569    43.883   247.947
 VIB. THERMAL CORRECTION E(T)-E(0) = H(T)-H(0) =       822.707 J/MOL

              E         H         G         CV        CP        S
         KCAL/MOL  KCAL/MOL  KCAL/MOL CAL/MOL-K CAL/MOL-K CAL/MOL-K
 ELEC.      0.000     0.000     0.000     0.000     0.000     0.000
 TRANS.     0.889     1.481    -9.671     2.981     4.968    37.403
 ROT.       0.889     0.889    -5.377     2.981     2.981    21.014
 VIB.      21.765    21.765    21.513     2.540     2.540     0.843
 TOTAL     23.542    24.134     6.466     8.501    10.488    59.261
 VIB. THERMAL CORRECTION E(T)-E(0) = H(T)-H(0) =       196.632 CAL/MOL

     -------------------------------
     THERMOCHEMISTRY AT T=  298.15 K
     -------------------------------

 USING IDEAL GAS, RIGID ROTOR, HARMONIC NORMAL MODE APPROXIMATIONS.
 P=  1.01325E+05 PASCAL.
 V=  4.06261E-26 M**3.
 ALL FREQUENCIES ARE SCALED BY   0.97000
 THE MOMENTS OF INERTIA ARE (IN AMU*BOHR**2)
             23.16176           149.13739           172.29915
 THE ROTATIONAL SYMMETRY NUMBER IS  1.0
 THE ROTATIONAL CONSTANTS ARE (IN GHZ)
     77.84763    12.09012    10.46487
      7 -     15 VIBRATIONAL MODES ARE USED IN THERMOCHEMISTRY.
 THE HARMONIC ZERO POINT ENERGY IS (SCALED BY   0.970)
        0.033340 HARTREE/MOLECULE     7317.181266 CM**-1/MOLECULE 
       20.920892 KCAL/MOL               87.533012 KJ/MOL

               Q               LN Q
 ELEC.     1.00000E+00       0.000000
 TRANS.    1.22650E+07      16.322261
 ROT.      8.73297E+03       9.074861
 VIB.      1.10845E+00       0.102966
 TOT.      1.18726E+11      25.500088

              E         H         G         CV        CP        S
           KJ/MOL    KJ/MOL    KJ/MOL   J/MOL-K   J/MOL-K   J/MOL-K
 ELEC.      0.000     0.000     0.000     0.000     0.000     0.000
 TRANS.     3.718     6.197   -40.462    12.472    20.786   156.496
 ROT.       3.718     3.718   -22.496    12.472    12.472    87.924
 VIB.      88.429    88.429    87.278    11.360    11.360     3.862
 TOTAL     95.866    98.345    24.320    36.303    44.618   248.282
 VIB. THERMAL CORRECTION E(T)-E(0) = H(T)-H(0) =       896.348 J/MOL

              E         H         G         CV        CP        S
         KCAL/MOL  KCAL/MOL  KCAL/MOL CAL/MOL-K CAL/MOL-K CAL/MOL-K
 ELEC.      0.000     0.000     0.000     0.000     0.000     0.000
 TRANS.     0.889     1.481    -9.671     2.981     4.968    37.403
 ROT.       0.889     0.889    -5.377     2.981     2.981    21.014
 VIB.      21.135    21.135    20.860     2.715     2.715     0.923
 TOTAL     22.913    23.505     5.813     8.677    10.664    59.341
 VIB. THERMAL CORRECTION E(T)-E(0) = H(T)-H(0) =       214.232 CAL/MOL
 ......END OF NORMAL COORDINATE ANALYSIS......
 CPU     0: STEP CPU TIME=     0.03 TOTAL CPU TIME=         28.5 (      0.5 MIN)
 TOTAL WALL CLOCK TIME=         29.9 SECONDS, CPU UTILIZATION IS    95.30%
              4709152  WORDS OF DYNAMIC MEMORY USED
 EXECUTION OF GAMESS TERMINATED NORMALLY 22:07:48 10-APR-2022    
 DDI: 263640 bytes (0.3 MB / 0 MWords) used by master data server.

 ----------------------------------------
 CPU timing information for all processes
 ========================================
 0: 19.188 + 9.368 = 28.557
 1: 19.268 + 10.94 = 29.363
 2: 18.408 + 9.634 = 28.43
 3: 19.111 + 10.114 = 29.225
 4: 18.771 + 8.612 = 27.384
 5: 18.758 + 9.953 = 28.712
 6: 19.352 + 9.912 = 29.264
 7: 18.782 + 8.781 = 27.563
 8: 18.422 + 10.35 = 28.458
 9: 18.874 + 9.69 = 27.943
 10: 18.584 + 9.960 = 28.544
 11: 18.764 + 10.21 = 28.786
 ----------------------------------------
 ddikick.x: exited gracefully.
----- accounting info -----
Files used on the master node g-MS-7C94 were:
-rw-rw-r-- 1 g g  218137  4月 10 22:07 /home/g/gamess/restart/CH2O2_GS.dat
-rw-r--r-- 1 g g     568  4月 10 22:07 /home/g/gamess/restart/CH2O2_GS.F05
-rw-rw-r-- 1 g g 1963200  4月 10 22:07 /home/g/gamess/restart/CH2O2_GS.F10
-rw-rw-r-- 1 g g  147120  4月 10 22:07 /home/g/gamess/restart/CH2O2_GS.F18
-rw-rw-r-- 1 g g  981600  4月 10 22:07 /home/g/gamess/restart/CH2O2_GS.F22
-rw-rw-r-- 1 g g  981600  4月 10 22:07 /home/g/gamess/restart/CH2O2_GS.F22.001
-rw-rw-r-- 1 g g  981600  4月 10 22:07 /home/g/gamess/restart/CH2O2_GS.F22.002
-rw-rw-r-- 1 g g  981600  4月 10 22:07 /home/g/gamess/restart/CH2O2_GS.F22.003
-rw-rw-r-- 1 g g  981600  4月 10 22:07 /home/g/gamess/restart/CH2O2_GS.F22.004
-rw-rw-r-- 1 g g  981600  4月 10 22:07 /home/g/gamess/restart/CH2O2_GS.F22.005
-rw-rw-r-- 1 g g  981600  4月 10 22:07 /home/g/gamess/restart/CH2O2_GS.F22.006
-rw-rw-r-- 1 g g  981600  4月 10 22:07 /home/g/gamess/restart/CH2O2_GS.F22.007
-rw-rw-r-- 1 g g  981600  4月 10 22:07 /home/g/gamess/restart/CH2O2_GS.F22.008
-rw-rw-r-- 1 g g  981600  4月 10 22:07 /home/g/gamess/restart/CH2O2_GS.F22.009
-rw-rw-r-- 1 g g  981600  4月 10 22:07 /home/g/gamess/restart/CH2O2_GS.F22.010
-rw-rw-r-- 1 g g  981600  4月 10 22:07 /home/g/gamess/restart/CH2O2_GS.F22.011
2022年 04月 10日 星期日 22:07:51 CST
0.0u 0.0s 0:33.06 0.2% 0+0k 0+16io 0pf+0w
