1 : CH2O2_ES.inp
2 : 00
3 : 12
----- GAMESS execution script 'rungms' -----
This job is running on host g-MS-7C94
under operating system Linux at 2022年 04月 10日 星期日 22:10:07 CST
Available scratch disk space (Kbyte units) at beginning of the job is
文件系统           1K-块      已用      可用 已用% 挂载点
/dev/nvme0n1p2 959863856 303835232 607200416   34% /
GAMESS temporary binary files will be written to /home/g/gamess/restart
GAMESS supplementary output files will be written to /home/g/gamess/restart
Copying input file ./CH2O2_ES.inp to your run's scratch directory...
 
Assuming a single but multicore node.
 

 Distributed Data Interface kickoff program.
 Initiating 12 compute processes on 1 nodes to run the following command:
 /home/g/opt/gamess/gamess.00.x CH2O2_ES 

          *******************************************************
          *                                                     *
          *      GAMESS VERSION = 30 SEP 2021 (R2 Patch 1)      *
          *                                                     *
          *              doi.org/10.1063/5.0005188              *
          *                                                     *
          **************** 64 BIT LINUX VERSION *****************

  GAMESS HAS BEEN MADE POSSIBLE WITH IMPORTANT CONTRIBUTIONS FROM
  THE FOLLOWING INDIVIDUALS (IN ALPHABETICAL ORDER):

     IVANA ADAMOVIC, CHRISTINE AIKENS, TOMOKO AKAMA,
     YURI ALEXEEV, YURIKO AOKI, POOJA ARORA, TOSHIO ASADA,
     ANDREY ASADCHEV, KIM K. BALDRIDGE, PRADIPTA BANDYOPADHYAY,
     TAYLOR A. BARNES, MARIA BARYSZ, ROB BELL,
     JONATHAN BENTZ, COLLEEN BERTONI,
     JERRY A. BOATZ, BRETT BODE, KURT BRORSEN, KURT R. BRORSEN,
     LAIMUTIS BYTAUTAS, CALEB CARLIN, LAURA CARRINGTON,
     GALINA CHABAN, BENOIT CHAMPAGNE, WEI CHEN, MAHITO CHIBA,
     DAN CHIPMAN, CHEOL HO CHOI, TANNER CULPITT,
     DIPAYAN DATTA, PAUL DAY, ALBERT DEFUSCO,
     NUWAN DESILVA, J. EMILIANO DEUSTUA,
     TIM DUDLEY, MICHEL DUPUIS, STEVEN T. ELBERT,
     DMITRI FEDOROV, ALEX FINDLATER, GRAHAM FLETCHER,
     MARK FREITAG, CHRISTIAN FRIEDL, DAVID GARMER,
     IGOR S. GERASIMOV, KURT GLAESEMANN, MARK S. GORDON,
     JEFFREY GOUR, FENG LONG GU, EMILIE B. GUIDEZ,
     ANASTASIA GUNINA, SHARON HAMMES-SCHIFFER, MASATAKE HARUTA,
     KIMIHIKO HIRAO, YASUHIRO IKABATA, TZVETELIN IORDANOV,
     STEPHAN IRLE, KAZUYA ISHIMURA, JOE IVANIC, FRANK JENSEN,
     JAN H. JENSEN, VISVALDAS KAIRYS, MUNEAKI KAMIYA,
     MICHIO KATOUDA, NAOAKI KAWAKAMI, DAN KEMP, BERNARD KIRTMAN,
     KAZUO KITAURA, MARIUSZ KLOBUKOWSKI, MASATO KOBAYASHI,
     PRAKASHAN KORAMBATH, JACEK KORCHOWIEC, SHIRO KOSEKI,
     KAROL KOWALSKI, JIMMY KROMANN, STANISLAW KUCHARSKI,
     HENRY KURTZ, SAROM SOK LEANG, HUI LI, SHUHUA LI, WEI LI,
     JESSE LUTZ, ALEKSANDR O. LYKHIN, MARCIN MAKOWSKI,
     JOANI MATO, NIKITA MATSUNAGA, BENEDETTA MENNUCCI,
     GRANT MERRILL, NORIYUKI MINEZAWA, VLADIMIR MIRONOV,
     EISAKU MIYOSHI, JOHN A. MONTGOMERY JR., HIROTOSHI MORI,
     JONATHAN MULLIN, MONIKA MUSIAL, SHIGERU NAGASE,
     TAKESHI NAGATA, HIROMI NAKAI, TAKAHITO NAKAJIMA,
     YUYA NAKAJIMA, HARUYUKI NAKANO, HIROYA NAKATA, SEAN NEDD,
     HEATHER NETZLOFF, KIET A. NGUYEN, YOSHIO NISHIMOTO,
     BOSILJKA NJEGIC, RYAN OLSON, MIKE PAK, ROBERTO PEVERATI,
     BUU PHAM, PIOTR PIECUCH, ANNA POMOGAEVA, DAVID POOLE,
     SPENCER PRUITT, OLIVIER QUINET, LUKE ROSKOP,
     KLAUS RUEDENBERG, ANDREW SAND, TOSAPORN SATTASATHUCHANA,
     NOZOMI SAWADA, MICHAEL W. SCHMIDT, PATRICK E. SCHNEIDER,
     JUNJI SEINO, PRACHI SHARMA, JUN SHEN, JIM SHOEMAKER,
     YINAN SHU, DEJUN SI, JONATHAN SKONE, LYUDMILA SLIPCHENKO,
     TONY SMITH, JIE SONG, MARK SPACKMAN, CASPER STEINMANN,
     WALT STEVENS, PEIFENG SU, SHUJUN SU, CHET SWALINA,
     TETSUYA TAKETSUGU, ZHEN TAO, NANDUN THELLAMUREGE
     SEIKEN TOKURA, JACOPO TOMASI, TSUGUKI TOUMA, TAKAO TSUNEDA,
     HIROAKI UMEDA, JORGE LUIS GALVEZ VALLEJO, YALI WANG,
     SIMON WEBB, AARON WEST, THERESA L. WINDUS, MARTA WLOCH,
     PENG XU, KIYOSHI YAGI, SUSUMU YANAGISAWA, YANG YANG,
     SOOHAENG YOO, TAKESHI YOSHIKAWA, FEDERICO ZAHARIEV,
     TOBY ZENG

  WHO ARE SUPPORTED BY THEIR INSTITUTION/UNIVERSITY/COMPANY/GROUP
  (IN ALPHABETICAL ORDER):

     EP ANALYTICS, FACULTES UNIVERSITAIRES NOTRE-DAME DE LA PAIX,
     INSTITUTE FOR MOLECULAR SCIENCE, IOWA STATE UNIVERSITY,
     JACKSON STATE UNIVERSITY, JOHANNES KEPLER UNIVERSITY LINZ,
     KYUSHU UNIVERSITY, MICHIGAN STATE UNIVERSITY,
     MIE UNIVERSITY, THE MOLECULAR SCIENCES SOFTWARE INSTITUTE,
     MOSCOW STATE UNIVERSITY,
     N. COPERNICUS UNIVERSITY, NAGOYA UNIVERSITY,
     NANJING UNIVERSITY, NAT. INST. OF ADVANCED INDUSTRIAL
     SCIENCE AND TECHNOLOGY, NATIONAL INST. OF STANDARDS AND
     TECHNOLOGY, NESMEYANOV INSTITUTE OF ORGANOELEMENT COMPOUNDS
     OF RUSSIAN ACADEMY OF SCIENCES, OSAKA PREFECTURE UNIVERSITY,
     PENNSYLVANIA STATE UNIVERSITY, TOKYO INSTITUTE OF TECHNOLOGY,
     UNIVERSITY OF AARHUS, UNIVERSITY OF ALBERTA,
     UNIVERSITY OF CALIFORNIA AT SANTA BARBARA,
     UNIVERSITY OF COPENHAGEN, UNIVERSITY OF IOWA,
     UNIVERSITY OF MEMPHIS, UNIVERSITY OF MINNESOTA,
     UNIVERSITY OF NEBRASKA, UNIVERSITY OF NEW ENGLAND,
     UNIVERSITY OF NOTRE DAME, UNIVERSITY OF PISA,
     UNIVERSITY OF SILESIA, UNIVERSITY OF TOKYO,
     UNIVERSITY OF ZURICH, WASEDA UNIVERSITY, YALE UNIVERSITY

  GAMESS SOFTWARE MANAGEMENT TEAM FOR THIS RELEASE:
     MARK S. GORDON (TEAM LEAD),
     BRETT BODE (SENIOR ADVISOR),
     GIUSEPPE BARCA,
     COLLEEN BERTONI,
     KRISTOPHER KEIPERT (ADVISOR),
     SAROM S. LEANG (DEVELOPMENT LEAD),
     BUU PHAM,
     JORGE LUIS GALVEZ VALLEJO (WEBSITE ADMINISTRATOR),
     PENG XU


 PARALLEL VERSION RUNNING ON       12 PROCESSORS IN        1 NODES.

 EXECUTION OF GAMESS BEGUN 22:10:07 10-APR-2022    

            ECHO OF THE FIRST FEW INPUT CARDS -
 INPUT CARD> $CONTRL SCFTYP=UHF MULT=2 ICHARG=1 RUNTYP=OPTIMIZE                             
 INPUT CARD> DFTTYP=PBE0 ISPHER=0 MAXIT=200 NPRINT=-5 $END                                  
 INPUT CARD> $FORCE METHOD=ANALYTIC  SCLFAC = 0.97 $END                                     
 INPUT CARD> $BASIS GBASIS=N31 NGAUSS=6 NDFUNC=1 NPFUNC=0 DIFFSP=.F. DIFFS=.F. $END         
 INPUT CARD> $SYSTEM MWORDS=2000 $END                                                       
 INPUT CARD> $SCF DIRSCF=.T. $END                                                           
 INPUT CARD> $DFT IDCVER=4 $END                                                             
 INPUT CARD> $STATPT                                                                        
 INPUT CARD> OPTTOL=0.0001 NSTEP=100 HSSEND=.t.                                             
 INPUT CARD> IHREP = 10                                                                     
 INPUT CARD> $END                                                                           
 INPUT CARD> $DATA                                                                          
 INPUT CARD>CH2O2                                                                           
 INPUT CARD>C1                                                                              
 INPUT CARD>O     8.0   0.54270   0.48191   0.83273                                         
 INPUT CARD>C     6.0  -0.38658  -0.05795   0.15599                                         
 INPUT CARD>O     8.0  -0.28242  -0.47379  -1.01799                                         
 INPUT CARD>H     1.0   1.40877   0.57280   0.38136                                         
 INPUT CARD>H     1.0  -1.3826  -0.18024   0.62401                                          
 INPUT CARD> $END                                                                           
 2000000000 WORDS OF MEMORY AVAILABLE

     BASIS OPTIONS
     -------------
     GBASIS=N31          IGAUSS=       6      POLAR=POPN31  
     NDFUNC=       1     NFFUNC=       0     DIFFSP=       F
     NPFUNC=       0      DIFFS=       F     BASNAM=        


     RUN TITLE
     ---------
 CH2O2                                                                           

 THE POINT GROUP OF THE MOLECULE IS C1      
 THE ORDER OF THE PRINCIPAL AXIS IS     0

 ATOM      ATOMIC                      COORDINATES (BOHR)
           CHARGE         X                   Y                   Z
 O           8.0     1.0255542935        0.9106778507        1.5736315218
 C           6.0    -0.7305302723       -0.1095096210        0.2947783568
 O           8.0    -0.5336964135       -0.8953332757       -1.9237221582
 H           1.0     2.6621892797        1.0824350458        0.7206659027
 H           1.0    -2.6127351506       -0.3406042120        1.1792079136

          INTERNUCLEAR DISTANCES (ANGS.)
          ------------------------------

                1 O          2 C          3 O          4 H          5 H     

   1 O       0.0000000    1.2700343 *  2.2403906 *  0.9808533 *  2.0466526 *
   2 C       1.2700343 *  0.0000000    1.2498005 *  1.9162251 *  1.1072730 *
   3 O       2.2403906 *  1.2498005 *  0.0000000    2.4318007 *  1.9981821 *
   4 H       0.9808533 *  1.9162251 *  2.4318007 *  0.0000000    2.9013264 *
   5 H       2.0466526 *  1.1072730 *  1.9981821 *  2.9013264 *  0.0000000  

  * ... LESS THAN  3.000


     ATOMIC BASIS SET
     ----------------
 THE CONTRACTED PRIMITIVE FUNCTIONS HAVE BEEN UNNORMALIZED
 THE CONTRACTED BASIS FUNCTIONS ARE NOW NORMALIZED TO UNITY

  SHELL TYPE  PRIMITIVE        EXPONENT          CONTRACTION COEFFICIENT(S)

 O         

      1   S       1          5484.6716600    0.001831074430
      1   S       2           825.2349460    0.013950172200
      1   S       3           188.0469580    0.068445078098
      1   S       4            52.9645000    0.232714335992
      1   S       5            16.8975704    0.470192897984
      1   S       6             5.7996353    0.358520852987

      2   L       7            15.5396162   -0.110777549525    0.070874268231
      2   L       8             3.5999336   -0.148026262701    0.339752839147
      2   L       9             1.0137618    1.130767015354    0.727158577316

      3   L      10             0.2700058    1.000000000000    1.000000000000

      4   D      11             0.8000000    1.000000000000

 C         

      5   S      12          3047.5248800    0.001834737132
      5   S      13           457.3695180    0.014037322813
      5   S      14           103.9486850    0.068842622264
      5   S      15            29.2101553    0.232184443216
      5   S      16             9.2866630    0.467941348435
      5   S      17             3.1639270    0.362311985337

      6   L      18             7.8682723   -0.119332419775    0.068999066591
      6   L      19             1.8812885   -0.160854151696    0.316423960957
      6   L      20             0.5442493    1.143456437840    0.744308290898

      7   L      21             0.1687145    1.000000000000    1.000000000000

      8   D      22             0.8000000    1.000000000000

 O         

      9   S      23          5484.6716600    0.001831074430
      9   S      24           825.2349460    0.013950172200
      9   S      25           188.0469580    0.068445078098
      9   S      26            52.9645000    0.232714335992
      9   S      27            16.8975704    0.470192897984
      9   S      28             5.7996353    0.358520852987

     10   L      29            15.5396162   -0.110777549525    0.070874268231
     10   L      30             3.5999336   -0.148026262701    0.339752839147
     10   L      31             1.0137618    1.130767015354    0.727158577316

     11   L      32             0.2700058    1.000000000000    1.000000000000

     12   D      33             0.8000000    1.000000000000

 H         

     13   S      34            18.7311370    0.033494604338
     13   S      35             2.8253944    0.234726953484
     13   S      36             0.6401217    0.813757326146

     14   S      37             0.1612778    1.000000000000

 H         

     15   S      38            18.7311370    0.033494604338
     15   S      39             2.8253944    0.234726953484
     15   S      40             0.6401217    0.813757326146

     16   S      41             0.1612778    1.000000000000

 TOTAL NUMBER OF BASIS SET SHELLS             =   16
 NUMBER OF CARTESIAN GAUSSIAN BASIS FUNCTIONS =   49
 NUMBER OF ELECTRONS                          =   23
 CHARGE OF MOLECULE                           =    1
 SPIN MULTIPLICITY                            =    2
 NUMBER OF OCCUPIED ORBITALS (ALPHA)          =   12
 NUMBER OF OCCUPIED ORBITALS (BETA )          =   11
 TOTAL NUMBER OF ATOMS                        =    5
 THE NUCLEAR REPULSION ENERGY IS       70.3910222045

 SELECTED MURRAY-HANDY-LAMING RADIAL GRID

 LEGACY BECKE'S FUZZY CELL METHOD

 SELECTED ORIGINAL BECKE'S PARTITION FUNCTION

     LEBEDEV GRID-BASED DFT OPTIONS
     ------------------------------
     DFTTYP=PBE0    
     NRAD  =      96     NLEB  =     302
     NRAD0 =      24     NLEB0 =     110
     SWOFF =    5.00E-03 (PURE SCF -> DFT)
     SWITCH=    3.00E-04 (COARSE -> TIGHT GRID)
     THRESH=    0.00E+00 GTHRE=    1.00E+00

 GRIMME'S EMPIRICAL DISPERSION CORRECTION= T
  ________________________________

           DFTD3 V1.2             
   S.GRIMME, UNIVERSITY MUENSTER  
   WED MAR 10 08:38:00 CET 2010   
  ________________________________

 PLEASE CITE DFT-D3 WORK DONE WITH THIS CODE AS:
 S. GRIMME, J. ANTONY, S. EHRLICH AND H. KRIEG,
 J. CHEM. PHYS, 132 (2010), 154104.
 IF USED WITH BJ-DAMPING CITE ALSO
 S. GRIMME, S. EHRLICH AND L. GOERIGK,
 J. COMPUT. CHEM. 32 (2011), 1456-1465

 DFT-D3 PARAMETERS WILL BE LOADED AND PRINTED
 BEFORE THE RESULTS

 IMPLEMENTATION OF DFT-D IN GAMESS BY:
 R.PEVERATI AND K.K.BALDRIDGE, 
 J.CHEM.THEORY COMPUT. 4,(2008), 2030-2048


     $CONTRL OPTIONS
     ---------------
 SCFTYP=UHF          RUNTYP=OPTIMIZE     EXETYP=RUN     
 MPLEVL=       0     CITYP =NONE         CCTYP =NONE         VBTYP =NONE    
 DFTTYP=PBE0         TDDFT =NONE    
 MULT  =       2     ICHARG=       1     NZVAR =       0     COORD =UNIQUE  
 PP    =NONE         RELWFN=NONE         LOCAL =NONE         NUMGRD=       F
 ISPHER=       0     NOSYM =       0     MAXIT =     200     UNITS =ANGS    
 PLTORB=       F     MOLPLT=       F     AIMPAC=       F     FRIEND=        
 NPRINT=      -5     IREST =       0     GEOM  =INPUT   
 NORMF =       0     NORMP =       0     ITOL  =      20     ICUT  =       9
 INTTYP=BEST         GRDTYP=BEST         QMTTOL= 1.0E-06

     $SYSTEM OPTIONS
     ---------------
  REPLICATED MEMORY=  2000000000 WORDS (ON EVERY NODE).
 DISTRIBUTED MEMDDI=           0 MILLION WORDS IN AGGREGATE,
 MEMDDI DISTRIBUTED OVER  12 PROCESSORS IS           0 WORDS/PROCESSOR.
 TOTAL MEMORY REQUESTED ON EACH PROCESSOR=  2000000000 WORDS.
 TIMLIM=      525600.00 MINUTES, OR     365.0 DAYS.
 PARALL= T  BALTYP=  DLB     KDIAG=    0  COREFL= F
 MXSEQ2=     300 MXSEQ3=     150  mem10=         0  mem22=         0

          ----------------
          PROPERTIES INPUT
          ----------------

     MOMENTS            FIELD           POTENTIAL          DENSITY
 IEMOM =       1   IEFLD =       0   IEPOT =       0   IEDEN =       0
 WHERE =COMASS     WHERE =NUCLEI     WHERE =NUCLEI     WHERE =NUCLEI  
 OUTPUT=BOTH       OUTPUT=BOTH       OUTPUT=BOTH       OUTPUT=BOTH    
 IEMINT=       0   IEFINT=       0                     IEDINT=       0
                                                       MORB  =       0
          EXTRAPOLATION IN EFFECT
          DIIS IN EFFECT
          DIIS or SOSCF will be reset if energy rises
 ORBITAL PRINTING OPTION: NPREO=     1    49     2     1

     -------------------------------
     INTEGRAL TRANSFORMATION OPTIONS
     -------------------------------
     NWORD  =            0
     CUTOFF = 1.0E-09     MPTRAN =       0
     DIRTRF =       T     AOINTS =DUP     

          ----------------------
          INTEGRAL INPUT OPTIONS
          ----------------------
 NOPK  =       1 NORDER=       0 SCHWRZ=       T

     ------------------------------------------
     THE POINT GROUP IS C1 , NAXIS= 0, ORDER= 1
     ------------------------------------------

     DIMENSIONS OF THE SYMMETRY SUBSPACES ARE
 A   =   49

 ..... DONE SETTING UP THE RUN .....
 CPU     0: STEP CPU TIME=     0.08 TOTAL CPU TIME=          0.1 (      0.0 MIN)
 TOTAL WALL CLOCK TIME=          0.1 SECONDS, CPU UTILIZATION IS   108.87%


          -----------------------------
          STATIONARY POINT LOCATION RUN
          -----------------------------

 OBTAINING INITIAL HESSIAN, HESS=GUESS   
 CARTESIAN COORDINATE OPTIMIZATION USING BADGER'S RULE FORCE CONSTANT GUESS

          PARAMETERS CONTROLLING GEOMETRY SEARCH ARE
          METHOD =QA                  UPHESS =BFGS    
          NNEG   =         0          NFRZ   =         0
          NSTEP  =       100          IFOLOW =         1
          HESS   =GUESS               RESTAR =         F
          IHREP  =        10          HSSEND =         T
          NPRT   =         0          NPUN   =         0
          OPTTOL = 1.000E-04          RMIN   = 1.500E-03
          RMAX   = 1.000E-01          RLIM   = 7.000E-02
          DXMAX  = 3.000E-01          PURIFY =         F
          MOVIE  =         F          TRUPD  =         T
          TRMAX  = 5.000E-01          TRMIN  = 5.000E-02
          ITBMAT =         5          STPT   =         F
          STSTEP = 1.000E-02          PROJCT=          T

 BEGINNING GEOMETRY SEARCH POINT NSERCH=   0 ...

 COORDINATES OF ALL ATOMS ARE (ANGS)
   ATOM   CHARGE       X              Y              Z
 ------------------------------------------------------------
 O           8.0   0.5427000000   0.4819100000   0.8327300000
 C           6.0  -0.3865800000  -0.0579500000   0.1559900000
 O           8.0  -0.2824200000  -0.4737900000  -1.0179900000
 H           1.0   1.4087700000   0.5728000000   0.3813600000
 H           1.0  -1.3826000000  -0.1802400000   0.6240100000
 ...... END OF ONE-ELECTRON INTEGRALS ......
 CPU     0: STEP CPU TIME=     0.01 TOTAL CPU TIME=          0.1 (      0.0 MIN)
 TOTAL WALL CLOCK TIME=          0.1 SECONDS, CPU UTILIZATION IS   110.97%

          -------------
          GUESS OPTIONS
          -------------
          GUESS =HUCKEL            NORB  =       0          NORDER=       0
          MIX   =       F          PRTMO =       F          PUNMO =       F
          TOLZ  = 1.0E-08          TOLE  = 1.0E-05
          SYMDEN=       F          PURIFY=       F

 INITIAL GUESS ORBITALS GENERATED BY HUCKEL   ROUTINE.
 HUCKEL GUESS REQUIRES     22562 WORDS.

 SYMMETRIES FOR INITIAL GUESS ORBITALS FOLLOW.  ALPHA SET(S).
    12 ORBITALS ARE OCCUPIED (    3 CORE ORBITALS).
     4=A        5=A        6=A        7=A        8=A        9=A       10=A   
    11=A       12=A       13=A       14=A       15=A       16=A       17=A   
    18=A       19=A       20=A       21=A       22=A   

 SYMMETRIES FOR INITIAL GUESS ORBITALS FOLLOW.   BETA SET(S).
    11 ORBITALS ARE OCCUPIED (    3 CORE ORBITALS).
     4=A        5=A        6=A        7=A        8=A        9=A       10=A   
    11=A       12=A       13=A       14=A       15=A       16=A       17=A   
    18=A       19=A       20=A       21=A   
 ...... END OF INITIAL ORBITAL SELECTION ......
 CPU     0: STEP CPU TIME=     0.06 TOTAL CPU TIME=          0.2 (      0.0 MIN)
 TOTAL WALL CLOCK TIME=          0.1 SECONDS, CPU UTILIZATION IS   109.24%

                    ----------------------
                    AO INTEGRAL TECHNOLOGY
                    ----------------------
     S,P,L SHELL ROTATED AXIS INTEGRALS, REPROGRAMMED BY
        KAZUYA ISHIMURA (IMS) AND JOSE SIERRA (SYNSTAR).
     S,P,D,L SHELL ROTATED AXIS INTEGRALS PROGRAMMED BY
        KAZUYA ISHIMURA (INSTITUTE FOR MOLECULAR SCIENCE).
     S,P,D,F,G SHELL TO TOTAL QUARTET ANGULAR MOMENTUM SUM 5,
        ERIC PROGRAM BY GRAHAM FLETCHER (ELORET AND NASA ADVANCED
        SUPERCOMPUTING DIVISION, AMES RESEARCH CENTER).
     S,P,D,F,G,L SHELL GENERAL RYS QUADRATURE PROGRAMMED BY
        MICHEL DUPUIS (PACIFIC NORTHWEST NATIONAL LABORATORY).
  ...... END OF TWO-ELECTRON INTEGRALS .....
 CPU     0: STEP CPU TIME=     0.04 TOTAL CPU TIME=          0.2 (      0.0 MIN)
 TOTAL WALL CLOCK TIME=          0.2 SECONDS, CPU UTILIZATION IS   112.82%

          ---------------------------
               U-PBE0 SCF CALCULATION
          ---------------------------
         DENSITY MATRIX CONVERGENCE THRESHOLD=  2.00E-05
     COARSE -> FINE DFT GRID SWITCH THRESHOLD=  3.00E-04 (SWITCH IN $DFT)
                   HF -> DFT SWITCH THRESHOLD=  5.00E-03 (SWOFF IN $DFT)

 DIRECT SCF CALCULATION, SCHWRZ=T   FDIFF=T

 DFT CODE IS SWITCHING FROM THE FINE GRID NRAD= 96,  NLEB=  302
                      TO THE COARSE GRID NRAD0= 24, NLEB0=  110

     EXCHANGE FUNCTIONAL   =PBE&HFX   
     CORRELATION FUNCTIONAL=PBE       
     DFT THRESHOLD         =.276E-07
     GRID CHANGE THRESHOLD =.300E-03
 FOR AN EULER-MACLAURIN QUADRATURE USING  96 RADIAL POINTS:
 SMALLEST GAUSSIAN PRIMITIVE EXPONENT=        0.1612777588 OF TYPE -S-
 ON ATOM NUMBER   4 HAS RADIAL NORMALIZATION=  1.000000
  LARGEST GAUSSIAN PRIMITIVE EXPONENT=     5484.6716600000 OF TYPE -S-
 ON ATOM NUMBER   1 HAS RADIAL NORMALIZATION=  1.000000
 DFT IS SWITCHED OFF, PERFORMING PURE SCF UNTIL SWOFF THRESHOLD IS REACHED.

                                                                                NONZERO     BLOCKS
 ITER EX      TOTAL ENERGY        E CHANGE  DENSITY CHANGE    DIIS ERROR      INTEGRALS    SKIPPED
   1  0     -187.6809677108  -187.6809677108   0.264609800   0.738136792         730784        181
          * * *   INITIATING DIIS PROCEDURE   * * *
   2  1     -188.3407236290    -0.6597559182   0.150047736   0.105106886         730679        200
   3  2     -188.3901425041    -0.0494188751   0.042452128   0.052979190         730354        226
   4  3     -188.4048550858    -0.0147125818   0.023348775   0.018572787         729165        282
   5  4     -188.4075770836    -0.0027219978   0.008964556   0.010116960         728844        321
   6  5     -188.4081600968    -0.0005830132   0.006099240   0.004242021         727884        375
   7  6     -188.4083210645    -0.0001609677   0.004208928   0.002646873         725257        447
 CONVERGED TO SWOFF, SO DFT CALCULATION IS NOW SWITCHED ON.
          * * *   INITIATING DIIS PROCEDURE   * * *
   8  7     -189.1327072002    -0.7243861357   0.091519769   0.069413389         730780        182
   9  8     -189.1483648166    -0.0156576164   0.049828858   0.032291230         729996        233
  10  9     -189.1490629983    -0.0006981817   0.024394741   0.034031608         729051        298
  11 10     -189.1522517270    -0.0031887287   0.004908549   0.005315700         728735        338
  12 11     -189.1523237927    -0.0000720657   0.002017132   0.001355386         723983        488
  13 12     -189.1523317366    -0.0000079439   0.001373272   0.001197759         722405        586
  14 13     -189.1523383929    -0.0000066564   0.000372132   0.000139143         720075        671
  15 14     -189.1523386222    -0.0000002292   0.000169455   0.000051561         713839        947
 DFT CODE IS SWITCHING BACK TO THE FINE GRID
          * * *   INITIATING DIIS PROCEDURE   * * *
  16 15     -189.1495886636     0.0027499586   0.001908037   0.001679554         730780        182
  17 16     -189.1495973208    -0.0000086573   0.000559617   0.000331886         722400        580
  18 17     -189.1495972277     0.0000000931   0.000402224   0.000394752         715906        837
  19 18     -189.1495975852    -0.0000003575   0.000090086   0.000080452         713341        935
  20 19     -189.1495976099    -0.0000000247   0.000029501   0.000021233         708059       1134
  21 20     -189.1495976121    -0.0000000022   0.000009609   0.000008406         701002       1378
  22 21     -189.1495976124    -0.0000000003   0.000005561   0.000002080         696730       1487

          -----------------
          DENSITY CONVERGED
          -----------------
     TIME TO FORM FOCK OPERATORS=       1.5 SECONDS (       0.1 SEC/ITER)
     FOCK TIME ON FIRST ITERATION=       0.0, LAST ITERATION=       0.1
     TIME TO SOLVE SCF EQUATIONS=       0.5 SECONDS (       0.0 SEC/ITER)

          ----------------------------
          DFT-D PARAMETERS AND RESULTS
          ----------------------------
 C6 COEFFICIENTS USED:
       2 C6 FOR ELEMENT   1
  Z=  1 CN= 0.912     C6(AA)=    3.03
  Z=  1 CN= 0.000     C6(AA)=    7.59
       5 C6 FOR ELEMENT   6
  Z=  6 CN= 0.000     C6(AA)=   49.11
  Z=  6 CN= 0.987     C6(AA)=   43.25
  Z=  6 CN= 1.998     C6(AA)=   29.36
  Z=  6 CN= 2.999     C6(AA)=   25.78
  Z=  6 CN= 3.984     C6(AA)=   18.21
       3 C6 FOR ELEMENT   8
  Z=  8 CN= 0.000     C6(AA)=   15.51
  Z=  8 CN= 0.993     C6(AA)=   12.82
  Z=  8 CN= 1.989     C6(AA)=   10.37

 #          XYZ [AU]             R0(AA) [ANG.]  CN         C6(AA)     C8(AA)   C10(AA) [AU]
  1   1.02555   0.91068   1.57363    8  0.493  2.010        10.4       210.0      5191.5
  2  -0.73053  -0.10951   0.29478    6  0.590  3.005        25.7       742.2     26295.1
  3  -0.53370  -0.89533  -1.92372    8  0.493  1.021        12.8       258.2      6382.7
  4   2.66219   1.08244   0.72067    1  0.381  1.008         3.1        37.3       552.6
  5  -2.61274  -0.34060   1.17921    1  0.381  0.995         3.1        37.4       553.6

     MOLECULAR C6(AA) [AU] =       233.03

           DFT-D V3(BJ)

 FUNCTIONAL: PBE0    

 PARAMETERS
 S6       :    1.0000
 S8       :    1.2177
 A1       :    0.4145
 A2       :    4.8593
 K1-K3    :   16.0000    1.3333    4.0000

 EDISP /KCAL,AU:    -0.9226 -0.00147032

 E6    /KCAL :    -0.6007
 E8    /KCAL :    -0.3220
 % E8        : 34.89

 FINAL U-PBE0 ENERGY IS     -189.1510679295 AFTER  22 ITERATIONS
 DFT EXCHANGE + CORRELATION ENERGY =       -17.2359250908
 TOTAL ELECTRON NUMBER             =        22.9999629513
 GRIMME'S DISPERSION ENERGY                     =       -0.0014703171
 ENERGY WITHOUT GRIMME'S DISPERSION CORRECTION IS     -189.1495976124

          --------------------
          SPIN SZ   =    0.500
          S-SQUARED =    0.755
          --------------------
 ...... END OF UHF CALCULATION ......
 CPU     0: STEP CPU TIME=     2.12 TOTAL CPU TIME=          2.3 (      0.0 MIN)
 TOTAL WALL CLOCK TIME=          2.0 SECONDS, CPU UTILIZATION IS   113.32%

          ----------------------------
          DFT-D PARAMETERS AND RESULTS
          ----------------------------
 C6 COEFFICIENTS USED:
       2 C6 FOR ELEMENT   1
  Z=  1 CN= 0.912     C6(AA)=    3.03
  Z=  1 CN= 0.000     C6(AA)=    7.59
       5 C6 FOR ELEMENT   6
  Z=  6 CN= 0.000     C6(AA)=   49.11
  Z=  6 CN= 0.987     C6(AA)=   43.25
  Z=  6 CN= 1.998     C6(AA)=   29.36
  Z=  6 CN= 2.999     C6(AA)=   25.78
  Z=  6 CN= 3.984     C6(AA)=   18.21
       3 C6 FOR ELEMENT   8
  Z=  8 CN= 0.000     C6(AA)=   15.51
  Z=  8 CN= 0.993     C6(AA)=   12.82
  Z=  8 CN= 1.989     C6(AA)=   10.37

 #          XYZ [AU]             R0(AA) [ANG.]  CN         C6(AA)     C8(AA)   C10(AA) [AU]
  1   1.02555   0.91068   1.57363    8  0.493  2.010        10.4       210.0      5191.5
  2  -0.73053  -0.10951   0.29478    6  0.590  3.005        25.7       742.2     26295.1
  3  -0.53370  -0.89533  -1.92372    8  0.493  1.021        12.8       258.2      6382.7
  4   2.66219   1.08244   0.72067    1  0.381  1.008         3.1        37.3       552.6
  5  -2.61274  -0.34060   1.17921    1  0.381  0.995         3.1        37.4       553.6

     MOLECULAR C6(AA) [AU] =       233.03

           DFT-D V3(BJ)

 FUNCTIONAL: PBE0    

 PARAMETERS
 S6       :    1.0000
 S8       :    1.2177
 A1       :    0.4145
 A2       :    4.8593
 K1-K3    :   16.0000    1.3333    4.0000

 EDISP /KCAL,AU:    -0.9226 -0.00147032

 E6    /KCAL :    -0.6007
 E8    /KCAL :    -0.3220
 % E8        : 34.89
 ..... END OF 1-ELECTRON GRADIENT ......
 CPU     0: STEP CPU TIME=     0.04 TOTAL CPU TIME=          2.4 (      0.0 MIN)
 TOTAL WALL CLOCK TIME=          2.1 SECONDS, CPU UTILIZATION IS   112.05%
 MEMORY FOR GRID POINT CONTRIBUTIONS TO THE DFT GRADIENT=    206786 WORDS.
 CPU     0: STEP CPU TIME=     0.08 TOTAL CPU TIME=          2.4 (      0.0 MIN)
 TOTAL WALL CLOCK TIME=          2.2 SECONDS, CPU UTILIZATION IS   110.03%
 ...... END OF 2-ELECTRON GRADIENT ......
 CPU     0: STEP CPU TIME=     0.01 TOTAL CPU TIME=          2.4 (      0.0 MIN)
 TOTAL WALL CLOCK TIME=          2.2 SECONDS, CPU UTILIZATION IS   109.90%

          NSERCH=  0     ENERGY=    -189.1510679

                                 -----------------------
                                 GRADIENT (HARTREE/BOHR)
                                 -----------------------
        ATOM     ZNUC       DE/DX         DE/DY         DE/DZ
 --------------------------------------------------------------
    1  O            8.0     0.0042475     0.0003748    -0.0024269
    2  C            6.0     0.0011593    -0.0022538    -0.0064296
    3  O            8.0    -0.0001338     0.0025193     0.0066101
    4  H            1.0    -0.0029956    -0.0001830     0.0018251
    5  H            1.0    -0.0022775    -0.0004573     0.0004212

          MAXIMUM GRADIENT = 0.0066101    RMS GRADIENT = 0.0030529

 NSERCH:   0  E=     -189.1510679295  GRAD. MAX=  0.0066101  R.M.S.=  0.0030529

          FORCE CONSTANT MATRIX NOT UPDATED --- TAKING FIRST STEP
          MIN SEARCH, CORRECT HESSIAN, TRYING PURE NR STEP
               NR STEP HAS LENGTH         =   0.024167
          RADIUS OF STEP TAKEN=   0.02417  CURRENT TRUST RADIUS=   0.30000

 BEGINNING GEOMETRY SEARCH POINT NSERCH=   1 ...

 COORDINATES OF ALL ATOMS ARE (ANGS)
   ATOM   CHARGE       X              Y              Z
 ------------------------------------------------------------
 O           8.0   0.5380894293   0.4830292105   0.8393272667
 C           6.0  -0.3847296850  -0.0575650280   0.1555218823
 O           8.0  -0.2835257305  -0.4763871576  -1.0239200792
 H           1.0   1.4068720884   0.5715059596   0.3794743763
 H           1.0  -1.3768361022  -0.1778529845   0.6256965539

          INTERNUCLEAR DISTANCES (ANGS.)
          ------------------------------

                1 O          2 C          3 O          4 H          5 H     

   1 O       0.0000000    1.2694200 *  2.2510491 *  0.9869529 *  2.0369937 *
   2 C       1.2694200 *  0.0000000    1.2556821 *  1.9119942 *  1.1044494 *
   3 O       2.2510491 *  1.2556821 *  0.0000000    2.4341407 *  2.0014208 *
   4 H       0.9869529 *  1.9119942 *  2.4341407 *  0.0000000    2.8933018 *
   5 H       2.0369937 *  1.1044494 *  2.0014208 *  2.8933018 *  0.0000000  

  * ... LESS THAN  3.000

 ...... END OF ONE-ELECTRON INTEGRALS ......
 CPU     0: STEP CPU TIME=     0.00 TOTAL CPU TIME=          2.4 (      0.0 MIN)
 TOTAL WALL CLOCK TIME=          2.2 SECONDS, CPU UTILIZATION IS   109.88%
  ...... END OF TWO-ELECTRON INTEGRALS .....
 CPU     0: STEP CPU TIME=     0.01 TOTAL CPU TIME=          2.5 (      0.0 MIN)
 TOTAL WALL CLOCK TIME=          2.2 SECONDS, CPU UTILIZATION IS   109.96%

          ---------------------------
               U-PBE0 SCF CALCULATION
          ---------------------------
         DENSITY MATRIX CONVERGENCE THRESHOLD=  2.00E-05
     COARSE -> FINE DFT GRID SWITCH THRESHOLD=  3.00E-04 (SWITCH IN $DFT)
                   HF -> DFT SWITCH THRESHOLD=  5.00E-03 (SWOFF IN $DFT)

 DIRECT SCF CALCULATION, SCHWRZ=T   FDIFF=T

 DFT CODE IS SWITCHING FROM THE FINE GRID NRAD= 96,  NLEB=  302
                      TO THE COARSE GRID NRAD0= 24, NLEB0=  110

                                                                                NONZERO     BLOCKS
 ITER EX      TOTAL ENERGY        E CHANGE  DENSITY CHANGE    DIIS ERROR      INTEGRALS    SKIPPED
          * * *   INITIATING DIIS PROCEDURE   * * *
   1  0     -189.1522334875  -189.1522334875   0.003543618   0.003102112         730695        184
   2  1     -189.1522954464    -0.0000619588   0.002361057   0.001224587         725473        451
   3  2     -189.1522971774    -0.0000017310   0.001464700   0.001519379         721376        586
   4  3     -189.1523033739    -0.0000061965   0.000302828   0.000248696         717787        757
   5  4     -189.1523037413    -0.0000003674   0.000199828   0.000143162         714278        911
 DFT CODE IS SWITCHING BACK TO THE FINE GRID
          * * *   INITIATING DIIS PROCEDURE   * * *
   6  5     -189.1496368960     0.0026668453   0.001934398   0.001658873         730695        184
   7  6     -189.1496453986    -0.0000085026   0.000542010   0.000337147         722230        586
   8  7     -189.1496453142     0.0000000844   0.000396302   0.000390821         714795        834
   9  8     -189.1496456693    -0.0000003551   0.000096319   0.000089251         712870        939
  10  9     -189.1496457012    -0.0000000320   0.000027631   0.000018212         708230       1122
  11 10     -189.1496457040    -0.0000000028   0.000017718   0.000012565         702745       1306
  12 11     -189.1496457051    -0.0000000011   0.000014927   0.000006146         702330       1328

          -----------------
          DENSITY CONVERGED
          -----------------
     TIME TO FORM FOCK OPERATORS=       1.2 SECONDS (       0.1 SEC/ITER)
     FOCK TIME ON FIRST ITERATION=       0.0, LAST ITERATION=       0.1
     TIME TO SOLVE SCF EQUATIONS=       0.1 SECONDS (       0.0 SEC/ITER)

          ----------------------------
          DFT-D PARAMETERS AND RESULTS
          ----------------------------
 C6 COEFFICIENTS USED:
       2 C6 FOR ELEMENT   1
  Z=  1 CN= 0.912     C6(AA)=    3.03
  Z=  1 CN= 0.000     C6(AA)=    7.59
       5 C6 FOR ELEMENT   6
  Z=  6 CN= 0.000     C6(AA)=   49.11
  Z=  6 CN= 0.987     C6(AA)=   43.25
  Z=  6 CN= 1.998     C6(AA)=   29.36
  Z=  6 CN= 2.999     C6(AA)=   25.78
  Z=  6 CN= 3.984     C6(AA)=   18.21
       3 C6 FOR ELEMENT   8
  Z=  8 CN= 0.000     C6(AA)=   15.51
  Z=  8 CN= 0.993     C6(AA)=   12.82
  Z=  8 CN= 1.989     C6(AA)=   10.37

 #          XYZ [AU]             R0(AA) [ANG.]  CN         C6(AA)     C8(AA)   C10(AA) [AU]
  1   1.01684   0.91279   1.58610    8  0.493  2.008        10.4       210.0      5191.8
  2  -0.72703  -0.10878   0.29389    6  0.590  3.006        25.7       742.1     26293.4
  3  -0.53579  -0.90024  -1.93493    8  0.493  1.020        12.8       258.2      6383.2
  4   2.65860   1.07999   0.71710    1  0.381  1.007         3.1        37.3       552.7
  5  -2.60184  -0.33609   1.18240    1  0.381  0.996         3.1        37.4       553.6

     MOLECULAR C6(AA) [AU] =       233.03

           DFT-D V3(BJ)

 FUNCTIONAL: PBE0    

 PARAMETERS
 S6       :    1.0000
 S8       :    1.2177
 A1       :    0.4145
 A2       :    4.8593
 K1-K3    :   16.0000    1.3333    4.0000

 EDISP /KCAL,AU:    -0.9227 -0.00147037

 E6    /KCAL :    -0.6007
 E8    /KCAL :    -0.3220
 % E8        : 34.90

 FINAL U-PBE0 ENERGY IS     -189.1511160718 AFTER  12 ITERATIONS
 DFT EXCHANGE + CORRELATION ENERGY =       -17.2318981141
 TOTAL ELECTRON NUMBER             =        22.9999625751
 GRIMME'S DISPERSION ENERGY                     =       -0.0014703668
 ENERGY WITHOUT GRIMME'S DISPERSION CORRECTION IS     -189.1496457051

          --------------------
          SPIN SZ   =    0.500
          S-SQUARED =    0.755
          --------------------
 ...... END OF UHF CALCULATION ......
 CPU     0: STEP CPU TIME=     1.41 TOTAL CPU TIME=          3.9 (      0.1 MIN)
 TOTAL WALL CLOCK TIME=          3.6 SECONDS, CPU UTILIZATION IS   108.76%

          ----------------------------
          DFT-D PARAMETERS AND RESULTS
          ----------------------------
 C6 COEFFICIENTS USED:
       2 C6 FOR ELEMENT   1
  Z=  1 CN= 0.912     C6(AA)=    3.03
  Z=  1 CN= 0.000     C6(AA)=    7.59
       5 C6 FOR ELEMENT   6
  Z=  6 CN= 0.000     C6(AA)=   49.11
  Z=  6 CN= 0.987     C6(AA)=   43.25
  Z=  6 CN= 1.998     C6(AA)=   29.36
  Z=  6 CN= 2.999     C6(AA)=   25.78
  Z=  6 CN= 3.984     C6(AA)=   18.21
       3 C6 FOR ELEMENT   8
  Z=  8 CN= 0.000     C6(AA)=   15.51
  Z=  8 CN= 0.993     C6(AA)=   12.82
  Z=  8 CN= 1.989     C6(AA)=   10.37

 #          XYZ [AU]             R0(AA) [ANG.]  CN         C6(AA)     C8(AA)   C10(AA) [AU]
  1   1.01684   0.91279   1.58610    8  0.493  2.008        10.4       210.0      5191.8
  2  -0.72703  -0.10878   0.29389    6  0.590  3.006        25.7       742.1     26293.4
  3  -0.53579  -0.90024  -1.93493    8  0.493  1.020        12.8       258.2      6383.2
  4   2.65860   1.07999   0.71710    1  0.381  1.007         3.1        37.3       552.7
  5  -2.60184  -0.33609   1.18240    1  0.381  0.996         3.1        37.4       553.6

     MOLECULAR C6(AA) [AU] =       233.03

           DFT-D V3(BJ)

 FUNCTIONAL: PBE0    

 PARAMETERS
 S6       :    1.0000
 S8       :    1.2177
 A1       :    0.4145
 A2       :    4.8593
 K1-K3    :   16.0000    1.3333    4.0000

 EDISP /KCAL,AU:    -0.9227 -0.00147037

 E6    /KCAL :    -0.6007
 E8    /KCAL :    -0.3220
 % E8        : 34.90
 ..... END OF 1-ELECTRON GRADIENT ......
 CPU     0: STEP CPU TIME=     0.04 TOTAL CPU TIME=          3.9 (      0.1 MIN)
 TOTAL WALL CLOCK TIME=          3.6 SECONDS, CPU UTILIZATION IS   108.46%
 MEMORY FOR GRID POINT CONTRIBUTIONS TO THE DFT GRADIENT=    206786 WORDS.
 CPU     0: STEP CPU TIME=     0.09 TOTAL CPU TIME=          4.0 (      0.1 MIN)
 TOTAL WALL CLOCK TIME=          3.7 SECONDS, CPU UTILIZATION IS   107.61%
 ...... END OF 2-ELECTRON GRADIENT ......
 CPU     0: STEP CPU TIME=     0.01 TOTAL CPU TIME=          4.0 (      0.1 MIN)
 TOTAL WALL CLOCK TIME=          3.7 SECONDS, CPU UTILIZATION IS   107.57%

          NSERCH=  1     ENERGY=    -189.1511161

                                 -----------------------
                                 GRADIENT (HARTREE/BOHR)
                                 -----------------------
        ATOM     ZNUC       DE/DX         DE/DY         DE/DZ
 --------------------------------------------------------------
    1  O            8.0    -0.0018498     0.0006229     0.0030760
    2  C            6.0     0.0015607    -0.0003940    -0.0018767
    3  O            8.0    -0.0003033    -0.0001069    -0.0001438
    4  H            1.0     0.0009085    -0.0003407    -0.0016969
    5  H            1.0    -0.0003162     0.0002187     0.0006414

          MAXIMUM GRADIENT = 0.0030760    RMS GRADIENT = 0.0012620

 NSERCH:   1  E=     -189.1511160718  GRAD. MAX=  0.0030760  R.M.S.=  0.0012620

          HESSIAN UPDATED USING THE BFGS FORMULA
             ACTUAL ENERGY CHANGE WAS  -0.0000481424
          PREDICTED ENERGY CHANGE WAS  -0.0000826835 RATIO=  0.582
          MIN SEARCH, CORRECT HESSIAN, TRYING PURE NR STEP
               NR STEP HAS LENGTH         =   0.018013
          RADIUS OF STEP TAKEN=   0.01801  CURRENT TRUST RADIUS=   0.05000

 BEGINNING GEOMETRY SEARCH POINT NSERCH=   2 ...

 COORDINATES OF ALL ATOMS ARE (ANGS)
   ATOM   CHARGE       X              Y              Z
 ------------------------------------------------------------
 O           8.0   0.5400828198   0.4816051021   0.8340095634
 C           6.0  -0.3879017001  -0.0574343022   0.1583944774
 O           8.0  -0.2836440589  -0.4761376279  -1.0231733700
 H           1.0   1.4108087365   0.5737496153   0.3822260505
 H           1.0  -1.3794757972  -0.1790527874   0.6246432787

          INTERNUCLEAR DISTANCES (ANGS.)
          ------------------------------

                1 O          2 C          3 O          4 H          5 H     

   1 O       0.0000000    1.2681382 *  2.2460912 *  0.9852728 *  2.0408352 *
   2 C       1.2681382 *  0.0000000    1.2578890 *  1.9193366 *  1.1024510 *
   3 O       2.2460912 *  1.2578890 *  0.0000000    2.4389713 *  2.0011013 *
   4 H       0.9852728 *  1.9193366 *  2.4389713 *  0.0000000    2.9002009 *
   5 H       2.0408352 *  1.1024510 *  2.0011013 *  2.9002009 *  0.0000000  

  * ... LESS THAN  3.000

 ...... END OF ONE-ELECTRON INTEGRALS ......
 CPU     0: STEP CPU TIME=     0.00 TOTAL CPU TIME=          4.0 (      0.1 MIN)
 TOTAL WALL CLOCK TIME=          3.7 SECONDS, CPU UTILIZATION IS   107.55%
  ...... END OF TWO-ELECTRON INTEGRALS .....
 CPU     0: STEP CPU TIME=     0.00 TOTAL CPU TIME=          4.0 (      0.1 MIN)
 TOTAL WALL CLOCK TIME=          3.7 SECONDS, CPU UTILIZATION IS   107.57%

          ---------------------------
               U-PBE0 SCF CALCULATION
          ---------------------------
         DENSITY MATRIX CONVERGENCE THRESHOLD=  2.00E-05
     COARSE -> FINE DFT GRID SWITCH THRESHOLD=  3.00E-04 (SWITCH IN $DFT)
                   HF -> DFT SWITCH THRESHOLD=  5.00E-03 (SWOFF IN $DFT)

 DIRECT SCF CALCULATION, SCHWRZ=T   FDIFF=T

 DFT CODE IS SWITCHING FROM THE FINE GRID NRAD= 96,  NLEB=  302
                      TO THE COARSE GRID NRAD0= 24, NLEB0=  110

                                                                                NONZERO     BLOCKS
 ITER EX      TOTAL ENERGY        E CHANGE  DENSITY CHANGE    DIIS ERROR      INTEGRALS    SKIPPED
          * * *   INITIATING DIIS PROCEDURE   * * *
   1  0     -189.1522114587  -189.1522114587   0.004205991   0.002234962         730737        184
   2  1     -189.1522597186    -0.0000482599   0.002042941   0.000879377         725613        444
   3  2     -189.1522570183     0.0000027003   0.001252610   0.001393128         720808        633
   4  3     -189.1522643443    -0.0000073261   0.000276204   0.000178384         717868        760
 DFT CODE IS SWITCHING BACK TO THE FINE GRID
          * * *   INITIATING DIIS PROCEDURE   * * *
   5  4     -189.1496540933     0.0026102510   0.001804633   0.001723921         730737        184
   6  5     -189.1496624222    -0.0000083289   0.000641180   0.000391366         722295        589
   7  6     -189.1496623113     0.0000001109   0.000438444   0.000444029         716263        812
   8  7     -189.1496628728    -0.0000005615   0.000074571   0.000058457         713406        929
   9  8     -189.1496628927    -0.0000000199   0.000038645   0.000028765         708114       1128
  10  9     -189.1496628970    -0.0000000042   0.000018798   0.000012341         703875       1266
  11 10     -189.1496628982    -0.0000000013   0.000016058   0.000005556         701843       1318

          -----------------
          DENSITY CONVERGED
          -----------------
     TIME TO FORM FOCK OPERATORS=       1.0 SECONDS (       0.1 SEC/ITER)
     FOCK TIME ON FIRST ITERATION=       0.0, LAST ITERATION=       0.1
     TIME TO SOLVE SCF EQUATIONS=       0.1 SECONDS (       0.0 SEC/ITER)

          ----------------------------
          DFT-D PARAMETERS AND RESULTS
          ----------------------------
 C6 COEFFICIENTS USED:
       2 C6 FOR ELEMENT   1
  Z=  1 CN= 0.912     C6(AA)=    3.03
  Z=  1 CN= 0.000     C6(AA)=    7.59
       5 C6 FOR ELEMENT   6
  Z=  6 CN= 0.000     C6(AA)=   49.11
  Z=  6 CN= 0.987     C6(AA)=   43.25
  Z=  6 CN= 1.998     C6(AA)=   29.36
  Z=  6 CN= 2.999     C6(AA)=   25.78
  Z=  6 CN= 3.984     C6(AA)=   18.21
       3 C6 FOR ELEMENT   8
  Z=  8 CN= 0.000     C6(AA)=   15.51
  Z=  8 CN= 0.993     C6(AA)=   12.82
  Z=  8 CN= 1.989     C6(AA)=   10.37

 #          XYZ [AU]             R0(AA) [ANG.]  CN         C6(AA)     C8(AA)   C10(AA) [AU]
  1   1.02061   0.91010   1.57605    8  0.493  2.009        10.4       210.0      5191.7
  2  -0.73303  -0.10854   0.29932    6  0.590  3.006        25.7       742.2     26294.2
  3  -0.53601  -0.89977  -1.93352    8  0.493  1.020        12.8       258.2      6383.0
  4   2.66604   1.08423   0.72230    1  0.381  1.006         3.1        37.3       552.7
  5  -2.60683  -0.33836   1.18040    1  0.381  0.996         3.1        37.4       553.6

     MOLECULAR C6(AA) [AU] =       233.03

           DFT-D V3(BJ)

 FUNCTIONAL: PBE0    

 PARAMETERS
 S6       :    1.0000
 S8       :    1.2177
 A1       :    0.4145
 A2       :    4.8593
 K1-K3    :   16.0000    1.3333    4.0000

 EDISP /KCAL,AU:    -0.9225 -0.00147004

 E6    /KCAL :    -0.6006
 E8    /KCAL :    -0.3219
 % E8        : 34.90

 FINAL U-PBE0 ENERGY IS     -189.1511329348 AFTER  11 ITERATIONS
 DFT EXCHANGE + CORRELATION ENERGY =       -17.2326657729
 TOTAL ELECTRON NUMBER             =        22.9999633634
 GRIMME'S DISPERSION ENERGY                     =       -0.0014700366
 ENERGY WITHOUT GRIMME'S DISPERSION CORRECTION IS     -189.1496628982

          --------------------
          SPIN SZ   =    0.500
          S-SQUARED =    0.755
          --------------------
 ...... END OF UHF CALCULATION ......
 CPU     0: STEP CPU TIME=     1.24 TOTAL CPU TIME=          5.2 (      0.1 MIN)
 TOTAL WALL CLOCK TIME=          5.0 SECONDS, CPU UTILIZATION IS   104.57%

          ----------------------------
          DFT-D PARAMETERS AND RESULTS
          ----------------------------
 C6 COEFFICIENTS USED:
       2 C6 FOR ELEMENT   1
  Z=  1 CN= 0.912     C6(AA)=    3.03
  Z=  1 CN= 0.000     C6(AA)=    7.59
       5 C6 FOR ELEMENT   6
  Z=  6 CN= 0.000     C6(AA)=   49.11
  Z=  6 CN= 0.987     C6(AA)=   43.25
  Z=  6 CN= 1.998     C6(AA)=   29.36
  Z=  6 CN= 2.999     C6(AA)=   25.78
  Z=  6 CN= 3.984     C6(AA)=   18.21
       3 C6 FOR ELEMENT   8
  Z=  8 CN= 0.000     C6(AA)=   15.51
  Z=  8 CN= 0.993     C6(AA)=   12.82
  Z=  8 CN= 1.989     C6(AA)=   10.37

 #          XYZ [AU]             R0(AA) [ANG.]  CN         C6(AA)     C8(AA)   C10(AA) [AU]
  1   1.02061   0.91010   1.57605    8  0.493  2.009        10.4       210.0      5191.7
  2  -0.73303  -0.10854   0.29932    6  0.590  3.006        25.7       742.2     26294.2
  3  -0.53601  -0.89977  -1.93352    8  0.493  1.020        12.8       258.2      6383.0
  4   2.66604   1.08423   0.72230    1  0.381  1.006         3.1        37.3       552.7
  5  -2.60683  -0.33836   1.18040    1  0.381  0.996         3.1        37.4       553.6

     MOLECULAR C6(AA) [AU] =       233.03

           DFT-D V3(BJ)

 FUNCTIONAL: PBE0    

 PARAMETERS
 S6       :    1.0000
 S8       :    1.2177
 A1       :    0.4145
 A2       :    4.8593
 K1-K3    :   16.0000    1.3333    4.0000

 EDISP /KCAL,AU:    -0.9225 -0.00147004

 E6    /KCAL :    -0.6006
 E8    /KCAL :    -0.3219
 % E8        : 34.90
 ..... END OF 1-ELECTRON GRADIENT ......
 CPU     0: STEP CPU TIME=     0.02 TOTAL CPU TIME=          5.3 (      0.1 MIN)
 TOTAL WALL CLOCK TIME=          5.0 SECONDS, CPU UTILIZATION IS   104.43%
 MEMORY FOR GRID POINT CONTRIBUTIONS TO THE DFT GRADIENT=    206786 WORDS.
 CPU     0: STEP CPU TIME=     0.12 TOTAL CPU TIME=          5.4 (      0.1 MIN)
 TOTAL WALL CLOCK TIME=          5.2 SECONDS, CPU UTILIZATION IS   104.16%
 ...... END OF 2-ELECTRON GRADIENT ......
 CPU     0: STEP CPU TIME=     0.01 TOTAL CPU TIME=          5.4 (      0.1 MIN)
 TOTAL WALL CLOCK TIME=          5.2 SECONDS, CPU UTILIZATION IS   104.12%

          NSERCH=  2     ENERGY=    -189.1511329

                                 -----------------------
                                 GRADIENT (HARTREE/BOHR)
                                 -----------------------
        ATOM     ZNUC       DE/DX         DE/DY         DE/DZ
 --------------------------------------------------------------
    1  O            8.0     0.0000134    -0.0002491    -0.0006925
    2  C            6.0    -0.0009166     0.0004983     0.0024364
    3  O            8.0     0.0002837    -0.0003787    -0.0013253
    4  H            1.0     0.0004402     0.0001948     0.0000795
    5  H            1.0     0.0001794    -0.0000653    -0.0004981

          MAXIMUM GRADIENT = 0.0024364    RMS GRADIENT = 0.0008193

 NSERCH:   2  E=     -189.1511329348  GRAD. MAX=  0.0024364  R.M.S.=  0.0008193

          HESSIAN UPDATED USING THE BFGS FORMULA
             ACTUAL ENERGY CHANGE WAS  -0.0000168630
          PREDICTED ENERGY CHANGE WAS  -0.0000315430 RATIO=  0.535
          MIN SEARCH, CORRECT HESSIAN, TRYING PURE NR STEP
               NR STEP HAS LENGTH         =   0.008380
          RADIUS OF STEP TAKEN=   0.00838  CURRENT TRUST RADIUS=   0.05000

 BEGINNING GEOMETRY SEARCH POINT NSERCH=   3 ...

 COORDINATES OF ALL ATOMS ARE (ANGS)
   ATOM   CHARGE       X              Y              Z
 ------------------------------------------------------------
 O           8.0   0.5392901133   0.4815551613   0.8345025375
 C           6.0  -0.3867321220  -0.0580203865   0.1559233006
 O           8.0  -0.2844424746  -0.4766329620  -1.0238340301
 H           1.0   1.4094726222   0.5737746002   0.3833572233
 H           1.0  -1.3777181389  -0.1779464130   0.6261509688

          INTERNUCLEAR DISTANCES (ANGS.)
          ------------------------------

                1 O          2 C          3 O          4 H          5 H     

   1 O       0.0000000    1.2685144 *  2.2472371 *  0.9845070 *  2.0379581 *
   2 C       1.2685144 *  0.0000000    1.2559964 *  1.9176138 *  1.1034263 *
   3 O       2.2472371 *  1.2559964 *  0.0000000    2.4398548 *  2.0017282 *
   4 H       0.9845070 *  1.9176138 *  2.4398548 *  0.0000000    2.8969753 *
   5 H       2.0379581 *  1.1034263 *  2.0017282 *  2.8969753 *  0.0000000  

  * ... LESS THAN  3.000

 ...... END OF ONE-ELECTRON INTEGRALS ......
 CPU     0: STEP CPU TIME=     0.00 TOTAL CPU TIME=          5.4 (      0.1 MIN)
 TOTAL WALL CLOCK TIME=          5.2 SECONDS, CPU UTILIZATION IS   104.12%
  ...... END OF TWO-ELECTRON INTEGRALS .....
 CPU     0: STEP CPU TIME=     0.02 TOTAL CPU TIME=          5.4 (      0.1 MIN)
 TOTAL WALL CLOCK TIME=          5.2 SECONDS, CPU UTILIZATION IS   103.66%

          ---------------------------
               U-PBE0 SCF CALCULATION
          ---------------------------
         DENSITY MATRIX CONVERGENCE THRESHOLD=  2.00E-05
     COARSE -> FINE DFT GRID SWITCH THRESHOLD=  3.00E-04 (SWITCH IN $DFT)
                   HF -> DFT SWITCH THRESHOLD=  5.00E-03 (SWOFF IN $DFT)

 DIRECT SCF CALCULATION, SCHWRZ=T   FDIFF=T

 DFT CODE IS SWITCHING FROM THE FINE GRID NRAD= 96,  NLEB=  302
                      TO THE COARSE GRID NRAD0= 24, NLEB0=  110

                                                                                NONZERO     BLOCKS
 ITER EX      TOTAL ENERGY        E CHANGE  DENSITY CHANGE    DIIS ERROR      INTEGRALS    SKIPPED
          * * *   INITIATING DIIS PROCEDURE   * * *
   1  0     -189.1522918799  -189.1522918799   0.002005339   0.001959095         730738        184
   2  1     -189.1523085872    -0.0000167072   0.000454223   0.000251220         722659        538
   3  2     -189.1523086843    -0.0000000971   0.000354636   0.000361671         716183        788
   4  3     -189.1523091574    -0.0000004731   0.000138471   0.000103997         713485        923
 DFT CODE IS SWITCHING BACK TO THE FINE GRID
          * * *   INITIATING DIIS PROCEDURE   * * *
   5  4     -189.1496600820     0.0026490754   0.001894559   0.001672451         730738        184
   6  5     -189.1496685475    -0.0000084655   0.000403444   0.000282925         722242        586
   7  6     -189.1496685734    -0.0000000259   0.000304177   0.000290317         715293        845
   8  7     -189.1496687872    -0.0000002138   0.000072813   0.000070909         712768        963
   9  8     -189.1496688065    -0.0000000194   0.000026187   0.000017340         707066       1163
  10  9     -189.1496688083    -0.0000000018   0.000010854   0.000008406         701763       1353
  11 10     -189.1496688088    -0.0000000005   0.000007931   0.000003888         697985       1420

          -----------------
          DENSITY CONVERGED
          -----------------
     TIME TO FORM FOCK OPERATORS=       1.1 SECONDS (       0.1 SEC/ITER)
     FOCK TIME ON FIRST ITERATION=       0.0, LAST ITERATION=       0.1
     TIME TO SOLVE SCF EQUATIONS=       0.2 SECONDS (       0.0 SEC/ITER)

          ----------------------------
          DFT-D PARAMETERS AND RESULTS
          ----------------------------
 C6 COEFFICIENTS USED:
       2 C6 FOR ELEMENT   1
  Z=  1 CN= 0.912     C6(AA)=    3.03
  Z=  1 CN= 0.000     C6(AA)=    7.59
       5 C6 FOR ELEMENT   6
  Z=  6 CN= 0.000     C6(AA)=   49.11
  Z=  6 CN= 0.987     C6(AA)=   43.25
  Z=  6 CN= 1.998     C6(AA)=   29.36
  Z=  6 CN= 2.999     C6(AA)=   25.78
  Z=  6 CN= 3.984     C6(AA)=   18.21
       3 C6 FOR ELEMENT   8
  Z=  8 CN= 0.000     C6(AA)=   15.51
  Z=  8 CN= 0.993     C6(AA)=   12.82
  Z=  8 CN= 1.989     C6(AA)=   10.37

 #          XYZ [AU]             R0(AA) [ANG.]  CN         C6(AA)     C8(AA)   C10(AA) [AU]
  1   1.01911   0.91001   1.57698    8  0.493  2.009        10.4       210.0      5191.7
  2  -0.73082  -0.10964   0.29465    6  0.590  3.006        25.7       742.2     26294.2
  3  -0.53752  -0.90071  -1.93477    8  0.493  1.020        12.8       258.2      6383.0
  4   2.66352   1.08428   0.72444    1  0.381  1.007         3.1        37.3       552.7
  5  -2.60351  -0.33627   1.18325    1  0.381  0.996         3.1        37.4       553.6

     MOLECULAR C6(AA) [AU] =       233.03

           DFT-D V3(BJ)

 FUNCTIONAL: PBE0    

 PARAMETERS
 S6       :    1.0000
 S8       :    1.2177
 A1       :    0.4145
 A2       :    4.8593
 K1-K3    :   16.0000    1.3333    4.0000

 EDISP /KCAL,AU:    -0.9225 -0.00147012

 E6    /KCAL :    -0.6006
 E8    /KCAL :    -0.3219
 % E8        : 34.90

 FINAL U-PBE0 ENERGY IS     -189.1511389308 AFTER  11 ITERATIONS
 DFT EXCHANGE + CORRELATION ENERGY =       -17.2333169352
 TOTAL ELECTRON NUMBER             =        22.9999630515
 GRIMME'S DISPERSION ENERGY                     =       -0.0014701219
 ENERGY WITHOUT GRIMME'S DISPERSION CORRECTION IS     -189.1496688088

          --------------------
          SPIN SZ   =    0.500
          S-SQUARED =    0.755
          --------------------
 ...... END OF UHF CALCULATION ......
 CPU     0: STEP CPU TIME=     1.34 TOTAL CPU TIME=          6.8 (      0.1 MIN)
 TOTAL WALL CLOCK TIME=          6.5 SECONDS, CPU UTILIZATION IS   103.91%

          ----------------------------
          DFT-D PARAMETERS AND RESULTS
          ----------------------------
 C6 COEFFICIENTS USED:
       2 C6 FOR ELEMENT   1
  Z=  1 CN= 0.912     C6(AA)=    3.03
  Z=  1 CN= 0.000     C6(AA)=    7.59
       5 C6 FOR ELEMENT   6
  Z=  6 CN= 0.000     C6(AA)=   49.11
  Z=  6 CN= 0.987     C6(AA)=   43.25
  Z=  6 CN= 1.998     C6(AA)=   29.36
  Z=  6 CN= 2.999     C6(AA)=   25.78
  Z=  6 CN= 3.984     C6(AA)=   18.21
       3 C6 FOR ELEMENT   8
  Z=  8 CN= 0.000     C6(AA)=   15.51
  Z=  8 CN= 0.993     C6(AA)=   12.82
  Z=  8 CN= 1.989     C6(AA)=   10.37

 #          XYZ [AU]             R0(AA) [ANG.]  CN         C6(AA)     C8(AA)   C10(AA) [AU]
  1   1.01911   0.91001   1.57698    8  0.493  2.009        10.4       210.0      5191.7
  2  -0.73082  -0.10964   0.29465    6  0.590  3.006        25.7       742.2     26294.2
  3  -0.53752  -0.90071  -1.93477    8  0.493  1.020        12.8       258.2      6383.0
  4   2.66352   1.08428   0.72444    1  0.381  1.007         3.1        37.3       552.7
  5  -2.60351  -0.33627   1.18325    1  0.381  0.996         3.1        37.4       553.6

     MOLECULAR C6(AA) [AU] =       233.03

           DFT-D V3(BJ)

 FUNCTIONAL: PBE0    

 PARAMETERS
 S6       :    1.0000
 S8       :    1.2177
 A1       :    0.4145
 A2       :    4.8593
 K1-K3    :   16.0000    1.3333    4.0000

 EDISP /KCAL,AU:    -0.9225 -0.00147012

 E6    /KCAL :    -0.6006
 E8    /KCAL :    -0.3219
 % E8        : 34.90
 ..... END OF 1-ELECTRON GRADIENT ......
 CPU     0: STEP CPU TIME=     0.02 TOTAL CPU TIME=          6.8 (      0.1 MIN)
 TOTAL WALL CLOCK TIME=          6.5 SECONDS, CPU UTILIZATION IS   103.81%
 MEMORY FOR GRID POINT CONTRIBUTIONS TO THE DFT GRADIENT=    206786 WORDS.
 CPU     0: STEP CPU TIME=     0.13 TOTAL CPU TIME=          6.9 (      0.1 MIN)
 TOTAL WALL CLOCK TIME=          6.6 SECONDS, CPU UTILIZATION IS   104.08%
 ...... END OF 2-ELECTRON GRADIENT ......
 CPU     0: STEP CPU TIME=     0.01 TOTAL CPU TIME=          6.9 (      0.1 MIN)
 TOTAL WALL CLOCK TIME=          6.6 SECONDS, CPU UTILIZATION IS   104.07%

          NSERCH=  3     ENERGY=    -189.1511389

                                 -----------------------
                                 GRADIENT (HARTREE/BOHR)
                                 -----------------------
        ATOM     ZNUC       DE/DX         DE/DY         DE/DZ
 --------------------------------------------------------------
    1  O            8.0     0.0001501    -0.0000450    -0.0002674
    2  C            6.0     0.0001117    -0.0002302    -0.0002937
    3  O            8.0     0.0000386     0.0001146     0.0001646
    4  H            1.0    -0.0002804     0.0000284     0.0002177
    5  H            1.0    -0.0000201     0.0001322     0.0001788

          MAXIMUM GRADIENT = 0.0002937    RMS GRADIENT = 0.0001763

 NSERCH:   3  E=     -189.1511389308  GRAD. MAX=  0.0002937  R.M.S.=  0.0001763

          HESSIAN UPDATED USING THE BFGS FORMULA
             ACTUAL ENERGY CHANGE WAS  -0.0000059959
          PREDICTED ENERGY CHANGE WAS  -0.0000074539 RATIO=  0.804
          MIN SEARCH, CORRECT HESSIAN, TRYING PURE NR STEP
               NR STEP HAS LENGTH         =   0.004684
          RADIUS OF STEP TAKEN=   0.00468  CURRENT TRUST RADIUS=   0.05000

 BEGINNING GEOMETRY SEARCH POINT NSERCH=   4 ...

 COORDINATES OF ALL ATOMS ARE (ANGS)
   ATOM   CHARGE       X              Y              Z
 ------------------------------------------------------------
 O           8.0   0.5396873235   0.4819857901   0.8353196104
 C           6.0  -0.3864324819  -0.0576206888   0.1567339379
 O           8.0  -0.2846651169  -0.4764314932  -1.0231312237
 H           1.0   1.4095485914   0.5734085070   0.3823356731
 H           1.0  -1.3782683161  -0.1786121152   0.6248420022

          INTERNUCLEAR DISTANCES (ANGS.)
          ------------------------------

                1 O          2 C          3 O          4 H          5 H     

   1 O       0.0000000    1.2686022 *  2.2476566 *  0.9849930 *  2.0394225 *
   2 C       1.2686022 *  0.0000000    1.2561214 *  1.9169356 *  1.1034049 *
   3 O       2.2476566 *  1.2561214 *  0.0000000    2.4388238 *  2.0001200 *
   4 H       0.9849930 *  1.9169356 *  2.4388238 *  0.0000000    2.8976314 *
   5 H       2.0394225 *  1.1034049 *  2.0001200 *  2.8976314 *  0.0000000  

  * ... LESS THAN  3.000

 ...... END OF ONE-ELECTRON INTEGRALS ......
 CPU     0: STEP CPU TIME=     0.00 TOTAL CPU TIME=          6.9 (      0.1 MIN)
 TOTAL WALL CLOCK TIME=          6.6 SECONDS, CPU UTILIZATION IS   104.07%
  ...... END OF TWO-ELECTRON INTEGRALS .....
 CPU     0: STEP CPU TIME=     0.01 TOTAL CPU TIME=          6.9 (      0.1 MIN)
 TOTAL WALL CLOCK TIME=          6.7 SECONDS, CPU UTILIZATION IS   103.82%

          ---------------------------
               U-PBE0 SCF CALCULATION
          ---------------------------
         DENSITY MATRIX CONVERGENCE THRESHOLD=  2.00E-05
     COARSE -> FINE DFT GRID SWITCH THRESHOLD=  3.00E-04 (SWITCH IN $DFT)
                   HF -> DFT SWITCH THRESHOLD=  5.00E-03 (SWOFF IN $DFT)

 DIRECT SCF CALCULATION, SCHWRZ=T   FDIFF=T

 DFT CODE IS SWITCHING FROM THE FINE GRID NRAD= 96,  NLEB=  302
                      TO THE COARSE GRID NRAD0= 24, NLEB0=  110

                                                                                NONZERO     BLOCKS
 ITER EX      TOTAL ENERGY        E CHANGE  DENSITY CHANGE    DIIS ERROR      INTEGRALS    SKIPPED
          * * *   INITIATING DIIS PROCEDURE   * * *
   1  0     -189.1523015382  -189.1523015382   0.001884677   0.001669670         730736        184
   2  1     -189.1523105706    -0.0000090324   0.000760923   0.000400665         722316        587
   3  2     -189.1523103432     0.0000002273   0.000518612   0.000538818         716702        801
   4  3     -189.1523110337    -0.0000006905   0.000108103   0.000083008         713786        913
 DFT CODE IS SWITCHING BACK TO THE FINE GRID
          * * *   INITIATING DIIS PROCEDURE   * * *
   5  4     -189.1496605937     0.0026504400   0.001841700   0.001669895         730736        184
   6  5     -189.1496689894    -0.0000083957   0.000400806   0.000281919         722229        588
   7  6     -189.1496689829     0.0000000065   0.000279674   0.000290510         715371        850
   8  7     -189.1496692602    -0.0000002774   0.000056509   0.000063873         713076        954
   9  8     -189.1496692744    -0.0000000142   0.000019713   0.000013100         706300       1191
  10  9     -189.1496692753    -0.0000000009   0.000009466   0.000008935         701139       1386

          -----------------
          DENSITY CONVERGED
          -----------------
     TIME TO FORM FOCK OPERATORS=       1.1 SECONDS (       0.1 SEC/ITER)
     FOCK TIME ON FIRST ITERATION=       0.1, LAST ITERATION=       0.1
     TIME TO SOLVE SCF EQUATIONS=       0.1 SECONDS (       0.0 SEC/ITER)

          ----------------------------
          DFT-D PARAMETERS AND RESULTS
          ----------------------------
 C6 COEFFICIENTS USED:
       2 C6 FOR ELEMENT   1
  Z=  1 CN= 0.912     C6(AA)=    3.03
  Z=  1 CN= 0.000     C6(AA)=    7.59
       5 C6 FOR ELEMENT   6
  Z=  6 CN= 0.000     C6(AA)=   49.11
  Z=  6 CN= 0.987     C6(AA)=   43.25
  Z=  6 CN= 1.998     C6(AA)=   29.36
  Z=  6 CN= 2.999     C6(AA)=   25.78
  Z=  6 CN= 3.984     C6(AA)=   18.21
       3 C6 FOR ELEMENT   8
  Z=  8 CN= 0.000     C6(AA)=   15.51
  Z=  8 CN= 0.993     C6(AA)=   12.82
  Z=  8 CN= 1.989     C6(AA)=   10.37

 #          XYZ [AU]             R0(AA) [ANG.]  CN         C6(AA)     C8(AA)   C10(AA) [AU]
  1   1.01986   0.91082   1.57853    8  0.493  2.009        10.4       210.0      5191.7
  2  -0.73025  -0.10889   0.29618    6  0.590  3.006        25.7       742.2     26294.0
  3  -0.53794  -0.90032  -1.93344    8  0.493  1.020        12.8       258.2      6383.0
  4   2.66366   1.08358   0.72251    1  0.381  1.007         3.1        37.3       552.7
  5  -2.60455  -0.33753   1.18078    1  0.381  0.996         3.1        37.4       553.6

     MOLECULAR C6(AA) [AU] =       233.03

           DFT-D V3(BJ)

 FUNCTIONAL: PBE0    

 PARAMETERS
 S6       :    1.0000
 S8       :    1.2177
 A1       :    0.4145
 A2       :    4.8593
 K1-K3    :   16.0000    1.3333    4.0000

 EDISP /KCAL,AU:    -0.9225 -0.00147013

 E6    /KCAL :    -0.6006
 E8    /KCAL :    -0.3219
 % E8        : 34.90

 FINAL U-PBE0 ENERGY IS     -189.1511394029 AFTER  10 ITERATIONS
 DFT EXCHANGE + CORRELATION ENERGY =       -17.2330642745
 TOTAL ELECTRON NUMBER             =        22.9999626625
 GRIMME'S DISPERSION ENERGY                     =       -0.0014701276
 ENERGY WITHOUT GRIMME'S DISPERSION CORRECTION IS     -189.1496692753

          --------------------
          SPIN SZ   =    0.500
          S-SQUARED =    0.755
          --------------------
 ...... END OF UHF CALCULATION ......
 CPU     0: STEP CPU TIME=     1.27 TOTAL CPU TIME=          8.2 (      0.1 MIN)
 TOTAL WALL CLOCK TIME=          7.8 SECONDS, CPU UTILIZATION IS   104.89%

          ----------------------------
          DFT-D PARAMETERS AND RESULTS
          ----------------------------
 C6 COEFFICIENTS USED:
       2 C6 FOR ELEMENT   1
  Z=  1 CN= 0.912     C6(AA)=    3.03
  Z=  1 CN= 0.000     C6(AA)=    7.59
       5 C6 FOR ELEMENT   6
  Z=  6 CN= 0.000     C6(AA)=   49.11
  Z=  6 CN= 0.987     C6(AA)=   43.25
  Z=  6 CN= 1.998     C6(AA)=   29.36
  Z=  6 CN= 2.999     C6(AA)=   25.78
  Z=  6 CN= 3.984     C6(AA)=   18.21
       3 C6 FOR ELEMENT   8
  Z=  8 CN= 0.000     C6(AA)=   15.51
  Z=  8 CN= 0.993     C6(AA)=   12.82
  Z=  8 CN= 1.989     C6(AA)=   10.37

 #          XYZ [AU]             R0(AA) [ANG.]  CN         C6(AA)     C8(AA)   C10(AA) [AU]
  1   1.01986   0.91082   1.57853    8  0.493  2.009        10.4       210.0      5191.7
  2  -0.73025  -0.10889   0.29618    6  0.590  3.006        25.7       742.2     26294.0
  3  -0.53794  -0.90032  -1.93344    8  0.493  1.020        12.8       258.2      6383.0
  4   2.66366   1.08358   0.72251    1  0.381  1.007         3.1        37.3       552.7
  5  -2.60455  -0.33753   1.18078    1  0.381  0.996         3.1        37.4       553.6

     MOLECULAR C6(AA) [AU] =       233.03

           DFT-D V3(BJ)

 FUNCTIONAL: PBE0    

 PARAMETERS
 S6       :    1.0000
 S8       :    1.2177
 A1       :    0.4145
 A2       :    4.8593
 K1-K3    :   16.0000    1.3333    4.0000

 EDISP /KCAL,AU:    -0.9225 -0.00147013

 E6    /KCAL :    -0.6006
 E8    /KCAL :    -0.3219
 % E8        : 34.90
 ..... END OF 1-ELECTRON GRADIENT ......
 CPU     0: STEP CPU TIME=     0.03 TOTAL CPU TIME=          8.2 (      0.1 MIN)
 TOTAL WALL CLOCK TIME=          7.8 SECONDS, CPU UTILIZATION IS   104.76%
 MEMORY FOR GRID POINT CONTRIBUTIONS TO THE DFT GRADIENT=    206786 WORDS.
 CPU     0: STEP CPU TIME=     0.10 TOTAL CPU TIME=          8.3 (      0.1 MIN)
 TOTAL WALL CLOCK TIME=          8.0 SECONDS, CPU UTILIZATION IS   104.39%
 ...... END OF 2-ELECTRON GRADIENT ......
 CPU     0: STEP CPU TIME=     0.01 TOTAL CPU TIME=          8.3 (      0.1 MIN)
 TOTAL WALL CLOCK TIME=          8.0 SECONDS, CPU UTILIZATION IS   104.37%

          NSERCH=  4     ENERGY=    -189.1511394

                                 -----------------------
                                 GRADIENT (HARTREE/BOHR)
                                 -----------------------
        ATOM     ZNUC       DE/DX         DE/DY         DE/DZ
 --------------------------------------------------------------
    1  O            8.0    -0.0000256     0.0000535     0.0001320
    2  C            6.0     0.0001619    -0.0001072    -0.0000115
    3  O            8.0    -0.0000752     0.0000379     0.0000540
    4  H            1.0     0.0000177     0.0000002    -0.0000941
    5  H            1.0    -0.0000788     0.0000156    -0.0000804

          MAXIMUM GRADIENT = 0.0001619    RMS GRADIENT = 0.0000778

 NSERCH:   4  E=     -189.1511394029  GRAD. MAX=  0.0001619  R.M.S.=  0.0000778

          HESSIAN UPDATED USING THE BFGS FORMULA
             ACTUAL ENERGY CHANGE WAS  -0.0000004722
          PREDICTED ENERGY CHANGE WAS  -0.0000008596 RATIO=  0.549
          MIN SEARCH, CORRECT HESSIAN, TRYING PURE NR STEP
               NR STEP HAS LENGTH         =   0.001661
          RADIUS OF STEP TAKEN=   0.00166  CURRENT TRUST RADIUS=   0.05000

 BEGINNING GEOMETRY SEARCH POINT NSERCH=   5 ...

 COORDINATES OF ALL ATOMS ARE (ANGS)
   ATOM   CHARGE       X              Y              Z
 ------------------------------------------------------------
 O           8.0   0.5395310190   0.4818147308   0.8349934727
 C           6.0  -0.3866851669  -0.0577589305   0.1565732876
 O           8.0  -0.2844460317  -0.4764664300  -1.0233966264
 H           1.0   1.4096119080   0.5735347509   0.3826169276
 H           1.0  -1.3781417283  -0.1783941211   0.6253129386

          INTERNUCLEAR DISTANCES (ANGS.)
          ------------------------------

                1 O          2 C          3 O          4 H          5 H     

   1 O       0.0000000    1.2685701 *  2.2474107 *  0.9849355 *  2.0389484 *
   2 C       1.2685701 *  0.0000000    1.2562236 *  1.9173708 *  1.1032932 *
   3 O       2.2474107 *  1.2562236 *  0.0000000    2.4391000 *  2.0008150 *
   4 H       0.9849355 *  1.9173708 *  2.4391000 *  0.0000000    2.8975625 *
   5 H       2.0389484 *  1.1032932 *  2.0008150 *  2.8975625 *  0.0000000  

  * ... LESS THAN  3.000

 ...... END OF ONE-ELECTRON INTEGRALS ......
 CPU     0: STEP CPU TIME=     0.00 TOTAL CPU TIME=          8.3 (      0.1 MIN)
 TOTAL WALL CLOCK TIME=          8.0 SECONDS, CPU UTILIZATION IS   104.36%
  ...... END OF TWO-ELECTRON INTEGRALS .....
 CPU     0: STEP CPU TIME=     0.00 TOTAL CPU TIME=          8.3 (      0.1 MIN)
 TOTAL WALL CLOCK TIME=          8.0 SECONDS, CPU UTILIZATION IS   104.37%

          ---------------------------
               U-PBE0 SCF CALCULATION
          ---------------------------
         DENSITY MATRIX CONVERGENCE THRESHOLD=  2.00E-05
     COARSE -> FINE DFT GRID SWITCH THRESHOLD=  3.00E-04 (SWITCH IN $DFT)
                   HF -> DFT SWITCH THRESHOLD=  5.00E-03 (SWOFF IN $DFT)

 DIRECT SCF CALCULATION, SCHWRZ=T   FDIFF=T

 DFT CODE IS SWITCHING FROM THE FINE GRID NRAD= 96,  NLEB=  302
                      TO THE COARSE GRID NRAD0= 24, NLEB0=  110

                                                                                NONZERO     BLOCKS
 ITER EX      TOTAL ENERGY        E CHANGE  DENSITY CHANGE    DIIS ERROR      INTEGRALS    SKIPPED
          * * *   INITIATING DIIS PROCEDURE   * * *
   1  0     -189.1522985135  -189.1522985135   0.001823900   0.001691878         730735        184
   2  1     -189.1523070799    -0.0000085665   0.000410719   0.000289785         722245        584
   3  2     -189.1523070955    -0.0000000156   0.000297443   0.000288238         715401        853
 DFT CODE IS SWITCHING BACK TO THE FINE GRID
          * * *   INITIATING DIIS PROCEDURE   * * *
   4  3     -189.1496607966     0.0026462989   0.001759665   0.001708926         730735        184
   5  4     -189.1496690169    -0.0000082203   0.000719988   0.000404779         722187        594
   6  5     -189.1496687734     0.0000002436   0.000488971   0.000495643         716314        824
   7  6     -189.1496694125    -0.0000006392   0.000091773   0.000070927         713468        919
   8  7     -189.1496694304    -0.0000000178   0.000033990   0.000025818         707737       1146
   9  8     -189.1496694338    -0.0000000035   0.000006497   0.000006496         700773       1348
  10  9     -189.1496694341    -0.0000000002   0.000002270   0.000001760         692274       1535

          -----------------
          DENSITY CONVERGED
          -----------------
     TIME TO FORM FOCK OPERATORS=       0.9 SECONDS (       0.1 SEC/ITER)
     FOCK TIME ON FIRST ITERATION=       0.0, LAST ITERATION=       0.1
     TIME TO SOLVE SCF EQUATIONS=       0.1 SECONDS (       0.0 SEC/ITER)

          ----------------------------
          DFT-D PARAMETERS AND RESULTS
          ----------------------------
 C6 COEFFICIENTS USED:
       2 C6 FOR ELEMENT   1
  Z=  1 CN= 0.912     C6(AA)=    3.03
  Z=  1 CN= 0.000     C6(AA)=    7.59
       5 C6 FOR ELEMENT   6
  Z=  6 CN= 0.000     C6(AA)=   49.11
  Z=  6 CN= 0.987     C6(AA)=   43.25
  Z=  6 CN= 1.998     C6(AA)=   29.36
  Z=  6 CN= 2.999     C6(AA)=   25.78
  Z=  6 CN= 3.984     C6(AA)=   18.21
       3 C6 FOR ELEMENT   8
  Z=  8 CN= 0.000     C6(AA)=   15.51
  Z=  8 CN= 0.993     C6(AA)=   12.82
  Z=  8 CN= 1.989     C6(AA)=   10.37

 #          XYZ [AU]             R0(AA) [ANG.]  CN         C6(AA)     C8(AA)   C10(AA) [AU]
  1   1.01957   0.91050   1.57791    8  0.493  2.009        10.4       210.0      5191.7
  2  -0.73073  -0.10915   0.29588    6  0.590  3.006        25.7       742.2     26294.1
  3  -0.53753  -0.90039  -1.93394    8  0.493  1.020        12.8       258.2      6383.0
  4   2.66378   1.08382   0.72304    1  0.381  1.007         3.1        37.3       552.7
  5  -2.60431  -0.33712   1.18167    1  0.381  0.996         3.1        37.4       553.6

     MOLECULAR C6(AA) [AU] =       233.03

           DFT-D V3(BJ)

 FUNCTIONAL: PBE0    

 PARAMETERS
 S6       :    1.0000
 S8       :    1.2177
 A1       :    0.4145
 A2       :    4.8593
 K1-K3    :   16.0000    1.3333    4.0000

 EDISP /KCAL,AU:    -0.9225 -0.00147012

 E6    /KCAL :    -0.6006
 E8    /KCAL :    -0.3219
 % E8        : 34.90

 FINAL U-PBE0 ENERGY IS     -189.1511395563 AFTER  10 ITERATIONS
 DFT EXCHANGE + CORRELATION ENERGY =       -17.2330812168
 TOTAL ELECTRON NUMBER             =        22.9999628737
 GRIMME'S DISPERSION ENERGY                     =       -0.0014701222
 ENERGY WITHOUT GRIMME'S DISPERSION CORRECTION IS     -189.1496694341

          --------------------
          SPIN SZ   =    0.500
          S-SQUARED =    0.755
          --------------------
 ...... END OF UHF CALCULATION ......
 CPU     0: STEP CPU TIME=     1.12 TOTAL CPU TIME=          9.4 (      0.2 MIN)
 TOTAL WALL CLOCK TIME=          9.2 SECONDS, CPU UTILIZATION IS   103.21%

          ----------------------------
          DFT-D PARAMETERS AND RESULTS
          ----------------------------
 C6 COEFFICIENTS USED:
       2 C6 FOR ELEMENT   1
  Z=  1 CN= 0.912     C6(AA)=    3.03
  Z=  1 CN= 0.000     C6(AA)=    7.59
       5 C6 FOR ELEMENT   6
  Z=  6 CN= 0.000     C6(AA)=   49.11
  Z=  6 CN= 0.987     C6(AA)=   43.25
  Z=  6 CN= 1.998     C6(AA)=   29.36
  Z=  6 CN= 2.999     C6(AA)=   25.78
  Z=  6 CN= 3.984     C6(AA)=   18.21
       3 C6 FOR ELEMENT   8
  Z=  8 CN= 0.000     C6(AA)=   15.51
  Z=  8 CN= 0.993     C6(AA)=   12.82
  Z=  8 CN= 1.989     C6(AA)=   10.37

 #          XYZ [AU]             R0(AA) [ANG.]  CN         C6(AA)     C8(AA)   C10(AA) [AU]
  1   1.01957   0.91050   1.57791    8  0.493  2.009        10.4       210.0      5191.7
  2  -0.73073  -0.10915   0.29588    6  0.590  3.006        25.7       742.2     26294.1
  3  -0.53753  -0.90039  -1.93394    8  0.493  1.020        12.8       258.2      6383.0
  4   2.66378   1.08382   0.72304    1  0.381  1.007         3.1        37.3       552.7
  5  -2.60431  -0.33712   1.18167    1  0.381  0.996         3.1        37.4       553.6

     MOLECULAR C6(AA) [AU] =       233.03

           DFT-D V3(BJ)

 FUNCTIONAL: PBE0    

 PARAMETERS
 S6       :    1.0000
 S8       :    1.2177
 A1       :    0.4145
 A2       :    4.8593
 K1-K3    :   16.0000    1.3333    4.0000

 EDISP /KCAL,AU:    -0.9225 -0.00147012

 E6    /KCAL :    -0.6006
 E8    /KCAL :    -0.3219
 % E8        : 34.90
 ..... END OF 1-ELECTRON GRADIENT ......
 CPU     0: STEP CPU TIME=     0.05 TOTAL CPU TIME=          9.5 (      0.2 MIN)
 TOTAL WALL CLOCK TIME=          9.2 SECONDS, CPU UTILIZATION IS   103.20%
 MEMORY FOR GRID POINT CONTRIBUTIONS TO THE DFT GRADIENT=    206786 WORDS.
 CPU     0: STEP CPU TIME=     0.10 TOTAL CPU TIME=          9.6 (      0.2 MIN)
 TOTAL WALL CLOCK TIME=          9.3 SECONDS, CPU UTILIZATION IS   103.07%
 ...... END OF 2-ELECTRON GRADIENT ......
 CPU     0: STEP CPU TIME=     0.01 TOTAL CPU TIME=          9.6 (      0.2 MIN)
 TOTAL WALL CLOCK TIME=          9.3 SECONDS, CPU UTILIZATION IS   103.05%

          NSERCH=  5     ENERGY=    -189.1511396

                                 -----------------------
                                 GRADIENT (HARTREE/BOHR)
                                 -----------------------
        ATOM     ZNUC       DE/DX         DE/DY         DE/DZ
 --------------------------------------------------------------
    1  O            8.0    -0.0000158     0.0000064    -0.0000001
    2  C            6.0     0.0000152    -0.0001212     0.0000694
    3  O            8.0    -0.0000002     0.0000287    -0.0000300
    4  H            1.0     0.0000105     0.0000272    -0.0000174
    5  H            1.0    -0.0000097     0.0000588    -0.0000220

          MAXIMUM GRADIENT = 0.0001212    RMS GRADIENT = 0.0000424

 NSERCH:   5  E=     -189.1511395563  GRAD. MAX=  0.0001212  R.M.S.=  0.0000424

          HESSIAN UPDATED USING THE BFGS FORMULA
             ACTUAL ENERGY CHANGE WAS  -0.0000001533
          PREDICTED ENERGY CHANGE WAS  -0.0000001647 RATIO=  0.931
          MIN SEARCH, CORRECT HESSIAN, TRYING PURE NR STEP
               NR STEP HAS LENGTH         =   0.000168
          RADIUS OF STEP TAKEN=   0.00017  CURRENT TRUST RADIUS=   0.05000

 BEGINNING GEOMETRY SEARCH POINT NSERCH=   6 ...

 COORDINATES OF ALL ATOMS ARE (ANGS)
   ATOM   CHARGE       X              Y              Z
 ------------------------------------------------------------
 O           8.0   0.5395449047   0.4818212205   0.8349994855
 C           6.0  -0.3866473199  -0.0577543840   0.1565549857
 O           8.0  -0.2845061370  -0.4764828009  -1.0233917487
 H           1.0   1.4096057002   0.5735447708   0.3826481549
 H           1.0  -1.3781271480  -0.1783988064   0.6252891227

          INTERNUCLEAR DISTANCES (ANGS.)
          ------------------------------

                1 O          2 C          3 O          4 H          5 H     

   1 O       0.0000000    1.2685664 *  2.2474485 *  0.9849065 *  2.0389544 *
   2 C       1.2685664 *  0.0000000    1.2562009 *  1.9173371 *  1.1033127 *
   3 O       2.2474485 *  1.2562009 *  0.0000000    2.4391640 *  2.0007523 *
   4 H       0.9849065 *  1.9173371 *  2.4391640 *  0.0000000    2.8975418 *
   5 H       2.0389544 *  1.1033127 *  2.0007523 *  2.8975418 *  0.0000000  

  * ... LESS THAN  3.000

 ...... END OF ONE-ELECTRON INTEGRALS ......
 CPU     0: STEP CPU TIME=     0.00 TOTAL CPU TIME=          9.6 (      0.2 MIN)
 TOTAL WALL CLOCK TIME=          9.3 SECONDS, CPU UTILIZATION IS   103.05%
  ...... END OF TWO-ELECTRON INTEGRALS .....
 CPU     0: STEP CPU TIME=     0.00 TOTAL CPU TIME=          9.6 (      0.2 MIN)
 TOTAL WALL CLOCK TIME=          9.3 SECONDS, CPU UTILIZATION IS   102.97%

          ---------------------------
               U-PBE0 SCF CALCULATION
          ---------------------------
         DENSITY MATRIX CONVERGENCE THRESHOLD=  2.00E-05
     COARSE -> FINE DFT GRID SWITCH THRESHOLD=  3.00E-04 (SWITCH IN $DFT)
                   HF -> DFT SWITCH THRESHOLD=  5.00E-03 (SWOFF IN $DFT)

 DIRECT SCF CALCULATION, SCHWRZ=T   FDIFF=T

 DFT CODE IS SWITCHING FROM THE FINE GRID NRAD= 96,  NLEB=  302
                      TO THE COARSE GRID NRAD0= 24, NLEB0=  110

                                                                                NONZERO     BLOCKS
 ITER EX      TOTAL ENERGY        E CHANGE  DENSITY CHANGE    DIIS ERROR      INTEGRALS    SKIPPED
          * * *   INITIATING DIIS PROCEDURE   * * *
   1  0     -189.1522992252  -189.1522992252   0.001863672   0.001672886         730735        184
   2  1     -189.1523076326    -0.0000084074   0.000446646   0.000292041         722319        588
   3  2     -189.1523076156     0.0000000169   0.000334376   0.000321914         715249        852
   4  3     -189.1523078676    -0.0000002520   0.000071519   0.000067741         712444        969
 DFT CODE IS SWITCHING BACK TO THE FINE GRID
          * * *   INITIATING DIIS PROCEDURE   * * *
   5  4     -189.1496607720     0.0026470956   0.001855394   0.001675617         730735        184
   6  5     -189.1496691696    -0.0000083976   0.000400349   0.000279482         722233        587
   7  6     -189.1496691714    -0.0000000018   0.000290048   0.000286086         715275        851
   8  7     -189.1496694207    -0.0000002493   0.000061445   0.000061572         712747        966
   9  8     -189.1496694356    -0.0000000149   0.000023189   0.000016194         705690       1192
  10  9     -189.1496694367    -0.0000000011   0.000008837   0.000008099         700239       1391
  11 10     -189.1496694371    -0.0000000004   0.000003174   0.000002080         695471       1500

          -----------------
          DENSITY CONVERGED
          -----------------
     TIME TO FORM FOCK OPERATORS=       1.2 SECONDS (       0.1 SEC/ITER)
     FOCK TIME ON FIRST ITERATION=       0.0, LAST ITERATION=       0.1
     TIME TO SOLVE SCF EQUATIONS=       0.2 SECONDS (       0.0 SEC/ITER)

          ----------------------------
          DFT-D PARAMETERS AND RESULTS
          ----------------------------
 C6 COEFFICIENTS USED:
       2 C6 FOR ELEMENT   1
  Z=  1 CN= 0.912     C6(AA)=    3.03
  Z=  1 CN= 0.000     C6(AA)=    7.59
       5 C6 FOR ELEMENT   6
  Z=  6 CN= 0.000     C6(AA)=   49.11
  Z=  6 CN= 0.987     C6(AA)=   43.25
  Z=  6 CN= 1.998     C6(AA)=   29.36
  Z=  6 CN= 2.999     C6(AA)=   25.78
  Z=  6 CN= 3.984     C6(AA)=   18.21
       3 C6 FOR ELEMENT   8
  Z=  8 CN= 0.000     C6(AA)=   15.51
  Z=  8 CN= 0.993     C6(AA)=   12.82
  Z=  8 CN= 1.989     C6(AA)=   10.37

 #          XYZ [AU]             R0(AA) [ANG.]  CN         C6(AA)     C8(AA)   C10(AA) [AU]
  1   1.01959   0.91051   1.57792    8  0.493  2.009        10.4       210.0      5191.7
  2  -0.73066  -0.10914   0.29585    6  0.590  3.006        25.7       742.2     26294.1
  3  -0.53764  -0.90042  -1.93393    8  0.493  1.020        12.8       258.2      6383.0
[...]
  2  -0.73086  -0.10844   0.29551    6  0.590  3.006        25.7       742.2     26294.1
  3  -0.53789  -0.90057  -1.93400    8  0.493  1.020        12.8       258.2      6383.0
  4   2.66419   1.08337   0.72357    1  0.381  1.007         3.1        37.3       552.7
  5  -2.60413  -0.33776   1.18184    1  0.381  0.996         3.1        37.4       553.6

     MOLECULAR C6(AA) [AU] =       233.03

           DFT-D V3(BJ)

 FUNCTIONAL: PBE0    

 PARAMETERS
 S6       :    1.0000
 S8       :    1.2177
 A1       :    0.4145
 A2       :    4.8593
 K1-K3    :   16.0000    1.3333    4.0000

 EDISP /KCAL,AU:    -0.9225 -0.00147011

 E6    /KCAL :    -0.6006
 E8    /KCAL :    -0.3219
 % E8        : 34.90

          ---------------
          ENERGY GRADIENT
          ---------------

 UNITS ARE HARTREE/BOHR    E'X               E'Y               E'Z 
    1 O                0.000016164       0.000005059       0.000008276
    2 C               -0.000003028       0.000000082       0.000002137
    3 O               -0.000021073      -0.000007593      -0.000023269
    4 H                0.000026380       0.000005821       0.000004908
    5 H               -0.000018444      -0.000003369       0.000007947

          -------------------------------
          CARTESIAN FORCE CONSTANT MATRIX
          -------------------------------

                                   1                          2
                               O                          C         
                          X        Y        Z        X        Y        Z
  1   O            X 0.730749 0.212907 0.015898-0.359496-0.144164-0.140869
                   Y 0.212907 0.161347 0.128135-0.152425-0.140148-0.086125
                   Z 0.015898 0.128135 0.371000-0.162536-0.092697-0.174883
  2   C            X-0.359496-0.152425-0.162536 0.668504 0.160159 0.024877
                   Y-0.144164-0.140148-0.092697 0.160159 0.299087 0.207042
                   Z-0.140869-0.086125-0.174883 0.024877 0.207042 0.694300
  3   O            X 0.001361-0.016620-0.023476-0.034231 0.018692 0.031125
                   Y-0.027526 0.001502-0.044097 0.027368-0.099486-0.132878
                   Z-0.052052-0.052754-0.070266 0.053716-0.125949-0.429813
  4   H            X-0.350503-0.039325 0.157932-0.025111-0.006995 0.004302
                   Y-0.021508-0.026735 0.003940-0.021986-0.002079 0.003123
                   Z 0.204606 0.018072-0.136742-0.034981-0.008775 0.008190
  5   H            X-0.022111-0.004537 0.012181-0.249665-0.027692 0.080566
                   Y-0.019708 0.004033 0.004718-0.013115-0.057373 0.008839
                   Z-0.027584-0.007328 0.010892 0.118926 0.020378-0.097794

                                   3                          4
                               O                          H         
                          X        Y        Z        X        Y        Z
  3   O            X 0.040336-0.004905-0.028725-0.001165 0.000845-0.001684
                   Y-0.004905 0.088311 0.181626 0.003738-0.004116 0.002231
                   Z-0.028725 0.181626 0.519250 0.005886 0.004520 0.001075
  4   H            X-0.001165 0.003738 0.005886 0.377444 0.045826-0.166723
                   Y 0.000845-0.004116 0.004520 0.045826 0.026974-0.007988
                   Z-0.001684 0.002231 0.001075-0.166723-0.007988 0.127499
  5   H            X-0.006303 0.001325 0.021174-0.000666-0.003177-0.001217
                   Y 0.001987 0.013789-0.007444-0.003245 0.005956-0.003539
                   Z 0.022759-0.006882-0.020246-0.001397-0.003595-0.000023

                                   5
                               H         
                          X        Y        Z
  5   H            X 0.278745 0.034082-0.112705
                   Y 0.034082 0.033596-0.002574
                   Z-0.112705-0.002574 0.107170

          ------------------------          ----------------
          DIPOLE DERIVATIVE TENSOR          (DEBYE/ANGSTROM)
          ------------------------          ----------------

        ATOM                 MU-X           MU-Y           MU-Z
     O          D/DX    -5.162798501   -1.341022958   -1.670459757
                D/DY    -1.050314633   -3.384563195   -0.593048635
                D/DZ    -0.908557657   -0.362219298   -3.068174573
     C          D/DX     2.991090444    1.146833714    1.771436495
                D/DY     1.398888647    2.282513675    1.108031203
                D/DZ     2.431568560    1.307991715    2.933659921
     O          D/DX    -1.886796475   -0.059830593    0.257046900
                D/DY    -0.618038792   -1.647261170   -0.248948980
                D/DZ    -1.205735979   -0.692180414   -2.221796181
     H          D/DX     2.688467497    0.299841055    0.259517053
                D/DY     0.219068004    2.029091271   -0.164691206
                D/DZ     0.047855496   -0.228879594    1.387674412
     H          D/DX     1.370114645   -0.045744566   -0.617476314
                D/DY     0.050487476    0.720313120   -0.101190128
                D/DZ    -0.365268836   -0.024753520    0.968514081

          --------------------------------------------------------
          NORMAL COORDINATE ANALYSIS IN THE HARMONIC APPROXIMATION
          --------------------------------------------------------

          ATOMIC WEIGHTS (AMU)

    1     O                15.99491
    2     C                12.00000
    3     O                15.99491
    4     H                 1.00782
    5     H                 1.00782

 MODES    1 TO    6 ARE TAKEN AS ROTATIONS AND TRANSLATIONS.

 ANALYZING SYMMETRY OF NORMAL MODES...

     FREQUENCIES IN CM**-1, IR INTENSITIES IN DEBYE**2/AMU-ANGSTROM**2,
     REDUCED MASSES IN AMU.

                            1           2           3           4           5
       FREQUENCY:        25.66       16.22        0.21        0.10        0.09  
        SYMMETRY:         A           A           A           A           A   
    REDUCED MASS:      3.66288     2.75503     9.00916     9.19316     9.16430
    IR INTENSITY:      0.00572     0.00539     0.00003     0.00000     0.00001

  1   O            X -0.11215781 -0.07734836  0.03097311 -0.03160906  0.14119417
                   Y  0.00296460  0.01127887  0.15646540  0.00084446 -0.03972620
                   Z  0.07206161  0.04410927 -0.00095638  0.14471893  0.03417716
  2   C            X  0.00867324 -0.04338181  0.03557043 -0.03234055  0.13914345
                   Y -0.09897985  0.09619608  0.13864114  0.00360094 -0.03213199
                   Z -0.01182267 -0.06982362  0.00694105  0.14352536  0.03093735
  3   O            X  0.11230356  0.11794944  0.03628515 -0.03242139  0.13880867
                   Y  0.07903037 -0.09210272  0.13172327  0.00446385 -0.02960386
                   Z -0.06620486  0.01103934  0.00946058  0.14321175  0.03001038
  4   H            X -0.12511134  0.03355757  0.02770830 -0.03106376  0.14263412
                   Y  0.24290377 -0.22362688  0.16547373 -0.00072808 -0.04392820
                   Z  0.09546623  0.21028489 -0.00542671  0.14545274  0.03610189
  5   H            X  0.02730111 -0.16403192  0.03934274 -0.03296932  0.13747921
                   Y -0.36831939  0.35768581  0.12802289  0.00544067 -0.02720795
                   Z -0.04245091 -0.25727045  0.01216597  0.14267254  0.02869466

 TRANS. SAYVETZ    X  0.00783459 -0.00266642  1.57021078 -1.47678208  6.43064685
                   Y -0.00265314 -0.00330927  6.56903878  0.13286662 -1.56620461
                   Z  0.00523622 -0.00313957  0.22610852  6.61810961  1.46322583
               TOTAL  0.00978968  0.00528375  6.75788114  6.78217617  6.77843976

   ROT. SAYVETZ    X  5.12038760 -2.84602907 -0.83910498  0.12181487  0.34032290
                   Y -8.54836993 -8.40168136  0.05971931 -0.00870819 -0.01861495
                   Z  5.26451049  1.27064630  0.54196281 -0.08306581 -0.23143286
               TOTAL 11.26978564  8.96117588  1.00069339  0.14769774  0.41197981

                            6           7           8           9          10
       FREQUENCY:         2.20      485.93      723.60     1013.44     1183.85  
        SYMMETRY:         A           A           A           A           A   
    REDUCED MASS:      5.38726     4.84001     1.37997     1.44529     1.14115
    IR INTENSITY:      0.00452     1.02260     4.89833     0.50511     4.27705

  1   O            X -0.03447351 -0.00487504  0.02523264 -0.00589295 -0.03058910
                   Y  0.14569827  0.04006985 -0.08326676  0.01887641 -0.03564253
                   Z -0.06616291  0.10843778  0.03189113 -0.00723683 -0.06900146
  2   C            X  0.01868862  0.14130117 -0.02780880  0.04329066 -0.01987036
                   Y -0.06226969  0.01549433  0.09209059 -0.14303568 -0.00044474
                   Z  0.02663719 -0.07093885 -0.03518935  0.05451659  0.01414442
  3   O            X  0.02580593 -0.11331204  0.01120075 -0.00925560  0.01659239
                   Y -0.14171650 -0.05990387 -0.03723175  0.03107578  0.00092032
                   Z  0.05547708 -0.06710555  0.01413025 -0.01189987 -0.01076745
  4   H            X -0.07321563  0.08570500 -0.22768263 -0.06244201  0.25939470
                   Y  0.25191278  0.14272038  0.75141492  0.20609755  0.30285074
                   Z -0.11934172  0.30625819 -0.28680825 -0.07835405  0.58757184
  5   H            X  0.06339851  0.10759329 -0.01943036 -0.21258537  0.19933980
                   Y -0.18736058 -0.01243596  0.06447790  0.70422827  0.25351796
                   Z  0.08876471 -0.11753224 -0.02459566 -0.26704685  0.50999891

 TRANS. SAYVETZ    X  0.07573231  0.00003320 -0.00000348  0.00000886  0.00000372
                   Y -0.61849095 -0.00000745  0.00000139  0.00000189  0.00000682
                   Z  0.11791111  0.00004180 -0.00000496  0.00000581 -0.00000439
               TOTAL  0.63416832  0.00005390  0.00000622  0.00001076  0.00000892

   ROT. SAYVETZ    X -9.75456511  0.00511820  0.00033963  0.00346609  0.00576634
                   Y  0.76117506 -0.02456870  0.00091533 -0.00434879 -0.01162812
                   Z  6.29505860  0.01448219  0.00267427  0.00473775  0.00613247
               TOTAL 11.63437539  0.02897500  0.00284691  0.00730562  0.01435517

                           11          12          13          14          15
       FREQUENCY:      1230.98     1401.51     1617.71     3085.36     3599.89  
        SYMMETRY:         A           A           A           A           A   
    REDUCED MASS:      2.20801     1.98648     8.82502     1.08363     1.06823
    IR INTENSITY:      0.43764     0.16763     3.79081     2.35062     7.25261

  1   O            X -0.03459760 -0.10296931 -0.06616770  0.00316818 -0.05528396
                   Y -0.04322863 -0.03611643 -0.04129821  0.00192345 -0.00689839
                   Z -0.08580672 -0.01289358 -0.05568334  0.00252651  0.02580442
  2   C            X  0.07093022  0.13302459  0.09084608 -0.07324605  0.00137966
                   Y  0.00312580  0.01515165  0.10292585 -0.01115951  0.00075108
                   Z -0.04792486 -0.06618140  0.19760456  0.02891412  0.00087210
  3   O            X -0.01870649 -0.00072596  0.00366348 -0.00205832 -0.00010568
                   Y  0.04555800  0.02356101 -0.02980425  0.00014713  0.00029051
                   Z  0.13428620  0.06231852 -0.08096870  0.00202710  0.00084640
  4   H            X  0.12485155 -0.25115439 -0.05544902  0.00142315  0.85785003
                   Y  0.14652032 -0.20077320 -0.02290903  0.00303698  0.09461674
                   Z  0.28396936 -0.32607459 -0.01600038  0.00682258 -0.43297991
  5   H            X -0.12342609  0.31297163 -0.03424941  0.85309156  0.00479365
                   Y -0.22070611  0.21962615 -0.07416356  0.09697459  0.00131092
                   Z -0.48273451  0.32967647 -0.16807499 -0.42336671 -0.00036935

 TRANS. SAYVETZ    X  0.00000523 -0.00000048  0.00000323  0.00000081 -0.00000250
                   Y  0.00000135 -0.00000256  0.00000061 -0.00000119 -0.00000107
                   Z  0.00000610  0.00000064  0.00000189  0.00000056  0.00000237
               TOTAL  0.00000815  0.00000268  0.00000379  0.00000154  0.00000361

   ROT. SAYVETZ    X -0.00291583  0.00361875 -0.00230925 -0.00057837 -0.00007536
                   Y  0.00597658 -0.00783427  0.00416756  0.00140176  0.00013646
                   Z -0.00293019  0.00391668 -0.00245832 -0.00068301 -0.00008088
               TOTAL  0.00726688  0.00947690  0.00536140  0.00166311  0.00017562

 REFERENCE ON SAYVETZ CONDITIONS - A. SAYVETZ, J.CHEM.PHYS., 7, 383-389(1939).

 NOTE - THE MODES J,K ARE ORTHONORMALIZED ACCORDING TO
 SUM ON I   M(I) * (X(I,J)*X(I,K) + Y(I,J)*Y(I,K) + Z(I,J)*Z(I,K)) = DELTA(J,K)

  MODE FREQ(CM**-1)  SYMMETRY  RED. MASS  IR INTENS.
     1      25.663    A        3.662876    0.005720
     2      16.224    A        2.755034    0.005394
     3       0.214    A        9.009165    0.000034
     4       0.103    A        9.193161    0.000001
     5       0.091    A        9.164298    0.000005
     6       2.196    A        5.387263    0.004517
     7     485.928    A        4.840011    1.022602
     8     723.605    A        1.379970    4.898330
     9    1013.442    A        1.445295    0.505105
    10    1183.845    A        1.141154    4.277047
    11    1230.982    A        2.208008    0.437635
    12    1401.512    A        1.986475    0.167626
    13    1617.710    A        8.825021    3.790809
    14    3085.361    A        1.083634    2.350615
    15    3599.893    A        1.068229    7.252606

     -------------------------------
     THERMOCHEMISTRY AT T=  298.15 K
     -------------------------------

 USING IDEAL GAS, RIGID ROTOR, HARMONIC NORMAL MODE APPROXIMATIONS.
 P=  1.01325E+05 PASCAL.
 V=  4.06261E-26 M**3.
 ALL FREQUENCIES ARE SCALED BY   1.00000
 THE MOMENTS OF INERTIA ARE (IN AMU*BOHR**2)
             23.12564           148.80618           171.93182
 THE ROTATIONAL SYMMETRY NUMBER IS  1.0
 THE ROTATIONAL CONSTANTS ARE (IN GHZ)
     77.96922    12.11703    10.48723
      7 -     15 VIBRATIONAL MODES ARE USED IN THERMOCHEMISTRY.
 THE HARMONIC ZERO POINT ENERGY IS (SCALED BY   1.000)
        0.032674 HARTREE/MOLECULE     7171.138620 CM**-1/MOLECULE 
       20.503335 KCAL/MOL               85.785953 KJ/MOL

               Q               LN Q
 ELEC.     2.00000E+00       0.693147
 TRANS.    1.22650E+07      16.322261
 ROT.      8.70717E+03       9.071902
 VIB.      1.15804E+00       0.146730
 TOT.      2.47343E+11      26.234040

              E         H         G         CV        CP        S
           KJ/MOL    KJ/MOL    KJ/MOL   J/MOL-K   J/MOL-K   J/MOL-K
 ELEC.      0.000     0.000    -1.718     0.000     0.000     5.763
 TRANS.     3.718     6.197   -40.462    12.472    20.786   156.496
 ROT.       3.718     3.718   -22.489    12.472    12.472    87.899
 VIB.      86.879    86.879    85.422    12.487    12.487     4.886
 TOTAL     94.316    96.795    20.753    37.431    45.745   255.044
 VIB. THERMAL CORRECTION E(T)-E(0) = H(T)-H(0) =      1092.941 J/MOL

              E         H         G         CV        CP        S
         KCAL/MOL  KCAL/MOL  KCAL/MOL CAL/MOL-K CAL/MOL-K CAL/MOL-K
 ELEC.      0.000     0.000    -0.411     0.000     0.000     1.377
 TRANS.     0.889     1.481    -9.671     2.981     4.968    37.403
 ROT.       0.889     0.889    -5.375     2.981     2.981    21.008
 VIB.      20.765    20.765    20.416     2.985     2.985     1.168
 TOTAL     22.542    23.134     4.960     8.946    10.933    60.957
 VIB. THERMAL CORRECTION E(T)-E(0) = H(T)-H(0) =       261.219 CAL/MOL

     -------------------------------
     THERMOCHEMISTRY AT T=  298.15 K
     -------------------------------

 USING IDEAL GAS, RIGID ROTOR, HARMONIC NORMAL MODE APPROXIMATIONS.
 P=  1.01325E+05 PASCAL.
 V=  4.06261E-26 M**3.
 ALL FREQUENCIES ARE SCALED BY   0.97000
 THE MOMENTS OF INERTIA ARE (IN AMU*BOHR**2)
             23.12564           148.80618           171.93182
 THE ROTATIONAL SYMMETRY NUMBER IS  1.0
 THE ROTATIONAL CONSTANTS ARE (IN GHZ)
     77.96922    12.11703    10.48723
      7 -     15 VIBRATIONAL MODES ARE USED IN THERMOCHEMISTRY.
 THE HARMONIC ZERO POINT ENERGY IS (SCALED BY   0.970)
        0.031694 HARTREE/MOLECULE     6956.004461 CM**-1/MOLECULE 
       19.888235 KCAL/MOL               83.212374 KJ/MOL

               Q               LN Q
 ELEC.     2.00000E+00       0.693147
 TRANS.    1.22650E+07      16.322261
 ROT.      8.70717E+03       9.071902
 VIB.      1.17429E+00       0.160660
 TOT.      2.50812E+11      26.247971

              E         H         G         CV        CP        S
           KJ/MOL    KJ/MOL    KJ/MOL   J/MOL-K   J/MOL-K   J/MOL-K
 ELEC.      0.000     0.000    -1.718     0.000     0.000     5.763
 TRANS.     3.718     6.197   -40.462    12.472    20.786   156.496
 ROT.       3.718     3.718   -22.489    12.472    12.472    87.899
 VIB.      84.388    84.388    82.814    13.245    13.245     5.278
 TOTAL     91.824    94.303    18.145    38.188    46.502   255.436
 VIB. THERMAL CORRECTION E(T)-E(0) = H(T)-H(0) =      1175.229 J/MOL

              E         H         G         CV        CP        S
         KCAL/MOL  KCAL/MOL  KCAL/MOL CAL/MOL-K CAL/MOL-K CAL/MOL-K
 ELEC.      0.000     0.000    -0.411     0.000     0.000     1.377
 TRANS.     0.889     1.481    -9.671     2.981     4.968    37.403
 ROT.       0.889     0.889    -5.375     2.981     2.981    21.008
 VIB.      20.169    20.169    19.793     3.166     3.166     1.261
 TOTAL     21.947    22.539     4.337     9.127    11.114    61.051
 VIB. THERMAL CORRECTION E(T)-E(0) = H(T)-H(0) =       280.887 CAL/MOL
 ......END OF NORMAL COORDINATE ANALYSIS......
 CPU     0: STEP CPU TIME=     0.13 TOTAL CPU TIME=         55.7 (      0.9 MIN)
 TOTAL WALL CLOCK TIME=         57.2 SECONDS, CPU UTILIZATION IS    97.51%
              5529638  WORDS OF DYNAMIC MEMORY USED
 EXECUTION OF GAMESS TERMINATED NORMALLY 22:11:05 10-APR-2022    
 DDI: 263640 bytes (0.3 MB / 0 MWords) used by master data server.

 ----------------------------------------
 CPU timing information for all processes
 ========================================
 0: 43.713 + 12.126 = 55.839
 1: 42.538 + 11.541 = 54.80
 2: 41.788 + 10.737 = 52.525
 3: 42.982 + 12.300 = 55.282
 4: 42.279 + 11.938 = 54.217
 5: 42.510 + 12.201 = 54.712
 6: 42.472 + 11.982 = 54.455
 7: 42.293 + 11.696 = 53.990
 8: 42.451 + 11.406 = 53.857
 9: 42.668 + 12.174 = 54.843
 10: 42.113 + 12.77 = 54.191
 11: 41.748 + 11.884 = 53.633
 ----------------------------------------
 ddikick.x: exited gracefully.
----- accounting info -----
Files used on the master node g-MS-7C94 were:
-rw-rw-r-- 1 g g  392218  4月 10 22:11 /home/g/gamess/restart/CH2O2_ES.dat
-rw-r--r-- 1 g g     567  4月 10 22:10 /home/g/gamess/restart/CH2O2_ES.F05
-rw-rw-r-- 1 g g 2290400  4月 10 22:11 /home/g/gamess/restart/CH2O2_ES.F10
-rw-rw-r-- 1 g g  294240  4月 10 22:10 /home/g/gamess/restart/CH2O2_ES.F18
-rw-rw-r-- 1 g g  982120  4月 10 22:10 /home/g/gamess/restart/CH2O2_ES.F22
-rw-rw-r-- 1 g g  982120  4月 10 22:10 /home/g/gamess/restart/CH2O2_ES.F22.001
-rw-rw-r-- 1 g g  982120  4月 10 22:10 /home/g/gamess/restart/CH2O2_ES.F22.002
-rw-rw-r-- 1 g g  982120  4月 10 22:10 /home/g/gamess/restart/CH2O2_ES.F22.003
-rw-rw-r-- 1 g g  982120  4月 10 22:10 /home/g/gamess/restart/CH2O2_ES.F22.004
-rw-rw-r-- 1 g g  982120  4月 10 22:10 /home/g/gamess/restart/CH2O2_ES.F22.005
-rw-rw-r-- 1 g g  982120  4月 10 22:10 /home/g/gamess/restart/CH2O2_ES.F22.006
-rw-rw-r-- 1 g g  982120  4月 10 22:10 /home/g/gamess/restart/CH2O2_ES.F22.007
-rw-rw-r-- 1 g g  982120  4月 10 22:10 /home/g/gamess/restart/CH2O2_ES.F22.008
-rw-rw-r-- 1 g g  982120  4月 10 22:10 /home/g/gamess/restart/CH2O2_ES.F22.009
-rw-rw-r-- 1 g g  982120  4月 10 22:10 /home/g/gamess/restart/CH2O2_ES.F22.010
-rw-rw-r-- 1 g g  982120  4月 10 22:10 /home/g/gamess/restart/CH2O2_ES.F22.011
2022年 04月 10日 星期日 22:11:08 CST
0.0u 0.0s 1:00.74 0.1% 0+0k 0+24io 0pf+0w
