
                                 *****************
                                 * O   R   C   A *
                                 *****************

                                            #,                                       
                                            ###                                      
                                            ####                                     
                                            #####                                    
                                            ######                                   
                                           ########,                                 
                                     ,,################,,,,,                         
                               ,,#################################,,                 
                          ,,##########################################,,             
                       ,#########################################, ''#####,          
                    ,#############################################,,   '####,        
                  ,##################################################,,,,####,       
                ,###########''''           ''''###############################       
              ,#####''   ,,,,##########,,,,          '''####'''          '####       
            ,##' ,,,,###########################,,,                        '##       
           ' ,,###''''                  '''############,,,                           
         ,,##''                                '''############,,,,        ,,,,,,###''
      ,#''                                            '''#######################'''  
     '                                                          ''''####''''         
             ,#######,   #######,   ,#######,      ##                                
            ,#'     '#,  ##    ##  ,#'     '#,    #''#        ######   ,####,        
            ##       ##  ##   ,#'  ##            #'  '#       #        #'  '#        
            ##       ##  #######   ##           ,######,      #####,   #    #        
            '#,     ,#'  ##    ##  '#,     ,#' ,#      #,         ##   #,  ,#        
             '#######'   ##     ##  '#######'  #'      '#     #####' # '####'        



                  #######################################################
                  #                        -***-                        #
                  #          Department of theory and spectroscopy      #
                  #    Directorship and core code : Frank Neese         #
                  #        Max Planck Institute fuer Kohlenforschung    #
                  #                Kaiser Wilhelm Platz 1               #
                  #                 D-45470 Muelheim/Ruhr               #
                  #                      Germany                        #
                  #                                                     #
                  #                  All rights reserved                #
                  #                        -***-                        #
                  #######################################################


                         Program Version 5.0.3 -  RELEASE  -


 With contributions from (in alphabetic order):
   Daniel Aravena         : Magnetic Suceptibility
   Michael Atanasov       : Ab Initio Ligand Field Theory (pilot matlab implementation)
   Alexander A. Auer      : GIAO ZORA, VPT2 properties, NMR spectrum
   Ute Becker             : Parallelization
   Giovanni Bistoni       : ED, misc. LED, open-shell LED, HFLD
   Martin Brehm           : Molecular dynamics
   Dmytro Bykov           : SCF Hessian
   Vijay G. Chilkuri      : MRCI spin determinant printing, contributions to CSF-ICE
   Dipayan Datta          : RHF DLPNO-CCSD density
   Achintya Kumar Dutta   : EOM-CC, STEOM-CC
   Dmitry Ganyushin       : Spin-Orbit,Spin-Spin,Magnetic field MRCI
   Miquel Garcia          : C-PCM and meta-GGA Hessian, CC/C-PCM, Gaussian charge scheme
   Yang Guo               : DLPNO-NEVPT2, F12-NEVPT2, CIM, IAO-localization
   Andreas Hansen         : Spin unrestricted coupled pair/coupled cluster methods
   Benjamin Helmich-Paris : MC-RPA, TRAH-SCF, COSX integrals
   Lee Huntington         : MR-EOM, pCC
   Robert Izsak           : Overlap fitted RIJCOSX, COSX-SCS-MP3, EOM
   Marcus Kettner         : VPT2
   Christian Kollmar      : KDIIS, OOCD, Brueckner-CCSD(T), CCSD density, CASPT2, CASPT2-K
   Simone Kossmann        : Meta GGA functionals, TD-DFT gradient, OOMP2, MP2 Hessian
   Martin Krupicka        : Initial AUTO-CI
   Lucas Lang             : DCDCAS
   Marvin Lechner         : AUTO-CI (C++ implementation), FIC-MRCC
   Dagmar Lenk            : GEPOL surface, SMD
   Dimitrios Liakos       : Extrapolation schemes; Compound Job, initial MDCI parallelization
   Dimitrios Manganas     : Further ROCIS development; embedding schemes
   Dimitrios Pantazis     : SARC Basis sets
   Anastasios Papadopoulos: AUTO-CI, single reference methods and gradients
   Taras Petrenko         : DFT Hessian,TD-DFT gradient, ASA, ECA, R-Raman, ABS, FL, XAS/XES, NRVS
   Peter Pinski           : DLPNO-MP2, DLPNO-MP2 Gradient
   Christoph Reimann      : Effective Core Potentials
   Marius Retegan         : Local ZFS, SOC
   Christoph Riplinger    : Optimizer, TS searches, QM/MM, DLPNO-CCSD(T), (RO)-DLPNO pert. Triples
   Tobias Risthaus        : Range-separated hybrids, TD-DFT gradient, RPA, STAB
   Michael Roemelt        : Original ROCIS implementation
   Masaaki Saitow         : Open-shell DLPNO-CCSD energy and density
   Barbara Sandhoefer     : DKH picture change effects
   Avijit Sen             : IP-ROCIS
   Kantharuban Sivalingam : CASSCF convergence, NEVPT2, FIC-MRCI
   Bernardo de Souza      : ESD, SOC TD-DFT
   Georgi Stoychev        : AutoAux, RI-MP2 NMR, DLPNO-MP2 response
   Willem Van den Heuvel  : Paramagnetic NMR
   Boris Wezisla          : Elementary symmetry handling
   Frank Wennmohs         : Technical directorship


 We gratefully acknowledge several colleagues who have allowed us to
 interface, adapt or use parts of their codes:
   Stefan Grimme, W. Hujo, H. Kruse, P. Pracht,  : VdW corrections, initial TS optimization,
                  C. Bannwarth, S. Ehlert          DFT functionals, gCP, sTDA/sTD-DF
   Ed Valeev, F. Pavosevic, A. Kumar             : LibInt (2-el integral package), F12 methods
   Garnet Chan, S. Sharma, J. Yang, R. Olivares  : DMRG
   Ulf Ekstrom                                   : XCFun DFT Library
   Mihaly Kallay                                 : mrcc  (arbitrary order and MRCC methods)
   Jiri Pittner, Ondrej Demel                    : Mk-CCSD
   Frank Weinhold                                : gennbo (NPA and NBO analysis)
   Christopher J. Cramer and Donald G. Truhlar   : smd solvation model
   Lars Goerigk                                  : TD-DFT with DH, B97 family of functionals
   V. Asgeirsson, H. Jonsson                     : NEB implementation
   FAccTs GmbH                                   : IRC, NEB, NEB-TS, DLPNO-Multilevel, CI-OPT
                                                   MM, QMMM, 2- and 3-layer-ONIOM, Crystal-QMMM,
                                                   LR-CPCM, SF, NACMEs, symmetry and pop. for TD-DFT,
                                                   nearIR, NL-DFT gradient (VV10), updates on ESD,
                                                   ML-optimized integration grids
   S Lehtola, MJT Oliveira, MAL Marques          : LibXC Library
   Liviu Ungur et al                             : ANISO software


 Your calculation uses the libint2 library for the computation of 2-el integrals
 For citations please refer to: http://libint.valeyev.net

 Your ORCA version has been built with support for libXC version: 5.1.0
 For citations please refer to: https://tddft.org/programs/libxc/

 This ORCA versions uses:
   CBLAS   interface :  Fast vector & matrix operations
   LAPACKE interface :  Fast linear algebra routines
   SCALAPACK package :  Parallel linear algebra routines
   Shared memory     :  Shared parallel matrices
   BLAS/LAPACK       :  OpenBLAS 0.3.15  USE64BITINT DYNAMIC_ARCH NO_AFFINITY Zen SINGLE_THREADED
        Core in use  :  Zen
   Copyright (c) 2011-2014, The OpenBLAS Project




***************************************
The coordinates will be read from file: ../GO/CH2O2GO_trj.xyz
***************************************


================================================================================

----- Orbital basis set information -----
Your calculation utilizes the basis: cc-pVQZ 
       H, B-Ne : Obtained from the ccRepo (grant-hill.group.shef.ac.uk/ccrepo) Feb. 2017
                 T. H. Dunning, Jr., J. Chem. Phys. 90, 1007 (1989)
            He : Obtained from the ccRepo (grant-hill.group.shef.ac.uk/ccrepo) Feb. 2017
                 D. E. Woon, T. H. Dunning, Jr., J. Chem. Phys. 100, 2975 (1994)
  Li-Be, Na-Mg : Obtained from the ccRepo (grant-hill.group.shef.ac.uk/ccrepo) Feb. 2017
                 B. P. Prascher, D. E. Woon, K. A. Peterson, T. H. Dunning, Jr., A. K. Wilson, Theor. Chem. Acc. 128, 69 (2011)
         Al-Ar : Obtained from the ccRepo (grant-hill.group.shef.ac.uk/ccrepo) Feb. 2017
                 D. E. Woon, T. H. Dunning, Jr., J. Chem. Phys. 98, 1358 (1993)
            Ca : Obtained from the Peterson Research Group Website (tyr0.chem.wsu.edu/~kipeters) Feb. 2017
                 J. Koput, K. A. Peterson, J. Phys. Chem. 106, 9595 (2002)
         Sc-Zn : Obtained from the ccRepo (grant-hill.group.shef.ac.uk/ccrepo) Feb. 2017
                 N. B. Balabanov, K. A. Peterson, J. Chem. Phys. 123, 064107 (2005)
                 N. B. Balabanov, K. A. Peterson, J. Chem. Phys. 125, 074110 (2006)
         Ga-Kr : Obtained from the ccRepo (grant-hill.group.shef.ac.uk/ccrepo) Feb. 2017
                 A. K. Wilson, D. E. Woon, K. A. Peterson, T. H. Dunning, Jr., J. Chem. Phys. 110, 7667 (1999)

----- AuxJ basis set information -----
Your calculation utilizes the auxiliary basis: def2/J
   F. Weigend, Phys. Chem. Chem. Phys. 8, 1057 (2006).

================================================================================
                                        WARNINGS
                       Please study these warnings very carefully!
================================================================================

WARNING: Old DensityContainer found on disk!
         Will remove this file - 
         If you want to keep old densities, please start your calculation with a different basename. 


WARNING: your system is open-shell and RHF/RKS was chosen
  ===> : WILL SWITCH to UHF/UKS


WARNING: Geometry Optimization
  ===> : Switching off AutoStart
         For restart on a previous wavefunction, please use MOREAD

INFO   : the flag for use of the SHARK integral package has been found!

================================================================================
                                       INPUT FILE
================================================================================
NAME = CH2O2ES.inp
|  1> # avogadro generated ORCA file
|  2> # CH2O2 | Frequencies | PBE0/6-311+G**
|  3> # 
|  4> ! Opt Freq B3LYP cc-pVQZ
|  5> %FREQ SCALFREQ 0.98
|  6> 
|  7> END
|  8> %maxcore 1365
|  9> 
| 10> %pal
| 11>    nprocs 12
| 12> end
| 13> 
| 14> * xyzfile 1 2 ../GO/CH2O2GO_trj.xyz
| 15> 
| 16> 
| 17> 
| 18>                          ****END OF INPUT****
================================================================================

                       *****************************
                       * Geometry Optimization Run *
                       *****************************

Geometry optimization settings:
Update method            Update   .... BFGS
Choice of coordinates    CoordSys .... Z-matrix Internals
Initial Hessian          InHess   .... Almoef's Model

Convergence Tolerances:
Energy Change            TolE     ....  5.0000e-06 Eh
Max. Gradient            TolMAXG  ....  3.0000e-04 Eh/bohr
RMS Gradient             TolRMSG  ....  1.0000e-04 Eh/bohr
Max. Displacement        TolMAXD  ....  4.0000e-03 bohr
RMS Displacement         TolRMSD  ....  2.0000e-03 bohr
Strict Convergence                ....  False
------------------------------------------------------------------------------
                        ORCA OPTIMIZATION COORDINATE SETUP
------------------------------------------------------------------------------

The optimization will be done in new redundant internal coordinates
Making redundant internal coordinates   ...  (new redundants) done
Evaluating the initial hessian          ...  (Almloef) done
Evaluating the coordinates              ...  done
Calculating the B-matrix                .... done
Calculating the G-matrix                .... done
Diagonalizing the G-matrix              .... done
The first mode is                       ....    1
The number of degrees of freedom        ....    9

    -----------------------------------------------------------------
                    Redundant Internal Coordinates


    -----------------------------------------------------------------
         Definition                    Initial Value    Approx d2E/dq
    -----------------------------------------------------------------
      1. B(C   1,O   0)                  1.3471         0.655118   
      2. B(O   2,C   1)                  1.2045         1.105987   
      3. B(H   3,O   0)                  0.9772         0.488059   
      4. B(H   4,C   1)                  1.0996         0.347674   
      5. A(C   1,O   0,H   3)          106.6175         0.369594   
      6. A(O   0,C   1,H   4)          109.3375         0.351924   
      7. A(O   2,C   1,H   4)          125.4711         0.385010   
      8. A(O   0,C   1,O   2)          125.1914         0.480772   
      9. D(H   4,C   1,O   0,H   3)    179.9854         0.031760   
     10. D(O   2,C   1,O   0,H   3)     -0.0140         0.031760   
    -----------------------------------------------------------------

Number of atoms                         .... 5
Number of degrees of freedom            .... 10

         *************************************************************
         *                GEOMETRY OPTIMIZATION CYCLE   1            *
         *************************************************************
---------------------------------
CARTESIAN COORDINATES (ANGSTROEM)
---------------------------------
  O      0.534039    0.497825    0.880960
  C     -0.403061   -0.081875    0.106060
  O     -0.231761   -0.460775   -1.024440
  H      1.350839    0.541625    0.346260
  H     -1.345861   -0.154075    0.667260

----------------------------
CARTESIAN COORDINATES (A.U.)
----------------------------
  NO LB      ZA    FRAG     MASS         X           Y           Z
   0 O     8.0000    0    15.999    1.009187    0.940753    1.664773
   1 C     6.0000    0    12.011   -0.761675   -0.154721    0.200424
   2 O     8.0000    0    15.999   -0.437965   -0.870739   -1.935911
   3 H     1.0000    0     1.008    2.552716    1.023523    0.654337
   4 H     1.0000    0     1.008   -2.543309   -0.291160    1.260939

--------------------------------
INTERNAL COORDINATES (ANGSTROEM)
--------------------------------
 O      0   0   0     0.000000000000     0.00000000     0.00000000
 C      1   0   0     1.347100037117     0.00000000     0.00000000
 O      2   1   0     1.204549355568   125.19138095     0.00000000
 H      1   2   3     0.977233221908   106.61753665     0.00000000
 H      2   1   3     1.099559057077   109.33751031   179.99939136

---------------------------
INTERNAL COORDINATES (A.U.)
---------------------------
 O      0   0   0     0.000000000000     0.00000000     0.00000000
 C      1   0   0     2.545650145146     0.00000000     0.00000000
 O      2   1   0     2.276268396815   125.19138095     0.00000000
 H      1   2   3     1.846703158375   106.61753665     0.00000000
 H      2   1   3     2.077865485948   109.33751031   179.99939136

---------------------
BASIS SET INFORMATION
---------------------
There are 3 groups of distinct atoms

 Group   1 Type O   : 21s6p3d2f1g contracted to 5s4p3d2f1g pattern {99111/3111/111/11/1}
 Group   2 Type C   : 21s6p3d2f1g contracted to 5s4p3d2f1g pattern {99111/3111/111/11/1}
 Group   3 Type H   : 6s3p2d1f contracted to 4s3p2d1f pattern {3111/111/11/1}

Atom   0O    basis set group =>   1
Atom   1C    basis set group =>   2
Atom   2O    basis set group =>   1
Atom   3H    basis set group =>   3
Atom   4H    basis set group =>   3
---------------------------------
AUXILIARY/J BASIS SET INFORMATION
---------------------------------
There are 3 groups of distinct atoms

 Group   1 Type O   : 12s5p4d2f1g contracted to 6s4p3d1f1g pattern {711111/2111/211/2/1}
 Group   2 Type C   : 12s5p4d2f1g contracted to 6s4p3d1f1g pattern {711111/2111/211/2/1}
 Group   3 Type H   : 5s2p1d contracted to 3s1p1d pattern {311/2/1}

Atom   0O    basis set group =>   1
Atom   1C    basis set group =>   2
Atom   2O    basis set group =>   1
Atom   3H    basis set group =>   3
Atom   4H    basis set group =>   3


           ************************************************************
           *        Program running with 12 parallel MPI-processes    *
           *              working on a common directory               *
           ************************************************************
------------------------------------------------------------------------------
                           ORCA GTO INTEGRAL CALCULATION
                           -- RI-GTO INTEGRALS CHOSEN --
------------------------------------------------------------------------------
------------------------------------------------------------------------------
                   ___                                                        
                  /   \      - P O W E R E D   B Y -                         
                 /     \                                                     
                 |  |  |   _    _      __       _____    __    __             
                 |  |  |  | |  | |    /  \     |  _  \  |  |  /  |          
                  \  \/   | |  | |   /    \    | | | |  |  | /  /          
                 / \  \   | |__| |  /  /\  \   | |_| |  |  |/  /          
                |  |  |   |  __  | /  /__\  \  |    /   |      \           
                |  |  |   | |  | | |   __   |  |    \   |  |\   \          
                \     /   | |  | | |  |  |  |  | |\  \  |  | \   \       
                 \___/    |_|  |_| |__|  |__|  |_| \__\ |__|  \__/        
                                                                              
                      - O R C A' S   B I G   F R I E N D -                    
                                      &                                       
                       - I N T E G R A L  F E E D E R -                       
                                                                              
 v1 FN, 2020, v2 2021                                                         
------------------------------------------------------------------------------


Reading SHARK input file CH2O2ES.SHARKINP.tmp ... ok
----------------------
SHARK INTEGRAL PACKAGE
----------------------

Number of atoms                             ...      5
Number of basis functions                   ...    246
Number of shells                            ...     86
Maximum angular momentum                    ...      4
Integral batch strategy                     ... SHARK/LIBINT Hybrid
RI-J (if used) integral strategy            ... SPLIT-RIJ (Revised 2003 algorithm where possible)
Printlevel                                  ...      1
Contraction scheme used                     ... PARTIAL GENERAL contraction
Coulomb Range Separation                    ... NOT USED
Exchange Range Separation                   ... NOT USED
Finite Nucleus Model                        ... NOT USED
Auxiliary Coulomb fitting basis             ... AVAILABLE
   # of basis functions in Aux-J            ...    169
   # of shells in Aux-J                     ...     55
   Maximum angular momentum in Aux-J        ...      4
Auxiliary J/K fitting basis                 ... NOT available
Auxiliary Correlation fitting basis         ... NOT available
Auxiliary 'external' fitting basis          ... NOT available
Integral threshold                          ...     2.500000e-11
Primitive cut-off                           ...     2.500000e-12
Primitive pair pre-selection threshold      ...     2.500000e-12

Calculating pre-screening integrals         ... done (  0.0 sec) Dimension = 86
Calculating pre-screening integrals (ORCA)  ... done (  0.1 sec) Dimension = 65
Organizing shell pair data                  ... done (  0.1 sec)
Shell pair information
Total number of shell pairs                 ...      3741
Shell pairs after pre-screening             ...      3350
Total number of primitive shell pairs       ...      4671
Primitive shell pairs kept                  ...      3994
          la=0 lb=0:    734 shell pairs
          la=1 lb=0:    729 shell pairs
          la=1 lb=1:    169 shell pairs
          la=2 lb=0:    533 shell pairs
          la=2 lb=1:    232 shell pairs
          la=2 lb=2:     90 shell pairs
          la=3 lb=0:    336 shell pairs
          la=3 lb=1:    144 shell pairs
          la=3 lb=2:    104 shell pairs
          la=3 lb=3:     36 shell pairs
          la=4 lb=0:    120 shell pairs
          la=4 lb=1:     54 shell pairs
          la=4 lb=2:     39 shell pairs
          la=4 lb=3:     24 shell pairs
          la=4 lb=4:      6 shell pairs

Calculating one electron integrals          ... done (  0.0 sec)
Calculating RI/J V-Matrix + Cholesky decomp.... done (  0.0 sec)
Calculating Nuclear repulsion               ... done (  0.0 sec) ENN=     69.992730913536 Eh

SHARK setup successfully completed in   0.3 seconds

Maximum memory used throughout the entire GTOINT-calculation: 31.7 MB


           ************************************************************
           *        Program running with 12 parallel MPI-processes    *
           *              working on a common directory               *
           ************************************************************
-------------------------------------------------------------------------------
                                 ORCA SCF
-------------------------------------------------------------------------------

------------
SCF SETTINGS
------------
Hamiltonian:
 Density Functional     Method          .... DFT(GTOs)
 Exchange Functional    Exchange        .... B88
   X-Alpha parameter    XAlpha          ....  0.666667
   Becke's b parameter  XBeta           ....  0.004200
 Correlation Functional Correlation     .... LYP
 LDA part of GGA corr.  LDAOpt          .... VWN-5
 Gradients option       PostSCFGGA      .... off
 Hybrid DFT is turned on
   Fraction HF Exchange ScalHFX         ....  0.200000
   Scaling of DF-GGA-X  ScalDFX         ....  0.720000
   Scaling of DF-GGA-C  ScalDFC         ....  0.810000
   Scaling of DF-LDA-C  ScalLDAC        ....  1.000000
   Perturbative correction              ....  0.000000
   Density functional embedding theory  .... OFF
   NL short-range parameter             ....  4.800000
 RI-approximation to the Coulomb term is turned on
   Number of AuxJ basis functions       .... 169
   RIJ-COSX (HFX calculated with COS-X)).... on


General Settings:
 Integral files         IntName         .... CH2O2ES
 Hartree-Fock type      HFTyp           .... UHF
 Total Charge           Charge          ....    1
 Multiplicity           Mult            ....    2
 Number of Electrons    NEL             ....   23
 Basis Dimension        Dim             ....  225
 Nuclear Repulsion      ENuc            ....     69.9927309135 Eh

Convergence Acceleration:
 DIIS                   CNVDIIS         .... on
   Start iteration      DIISMaxIt       ....    12
   Startup error        DIISStart       ....  0.200000
   # of expansion vecs  DIISMaxEq       ....     5
   Bias factor          DIISBfac        ....   1.050
   Max. coefficient     DIISMaxC        ....  10.000
 Trust-Rad. Augm. Hess. CNVTRAH         .... auto
   Auto Start mean grad. ratio tolernc. ....  1.125000
   Auto Start start iteration           ....    20
   Auto Start num. interpolation iter.  ....    10
   Max. Number of Micro iterations      ....    16
   Max. Number of Macro iterations      .... Maxiter - #DIIS iter
   Number of Davidson start vectors     ....     2
   Converg. threshold I  (grad. norm)   ....   1.000e-05
   Converg. threshold II (energy diff.) ....   1.000e-08
   Grad. Scal. Fac. for Micro threshold ....   0.100
   Minimum threshold for Micro iter.    ....   0.010
   NR start threshold (gradient norm)   ....   0.001
   Initial trust radius                 ....   0.400
   Minimum AH scaling param. (alpha)    ....   1.000
   Maximum AH scaling param. (alpha)    .... 1000.000
   Orbital update algorithm             .... Taylor
   White noise on init. David. guess    .... on
   Maximum white noise                  ....   0.010
   Quad. conv. algorithm                .... NR
 SOSCF                  CNVSOSCF        .... off
 Level Shifting         CNVShift        .... on
   Level shift para.    LevelShift      ....    0.2500
   Turn off err/grad.   ShiftErr        ....    0.0010
 Zerner damping         CNVZerner       .... off
 Static damping         CNVDamp         .... on
   Fraction old density DampFac         ....    0.7000
   Max. Damping (<1)    DampMax         ....    0.9800
   Min. Damping (>=0)   DampMin         ....    0.0000
   Turn off err/grad.   DampErr         ....    0.1000
 Fernandez-Rico         CNVRico         .... off

SCF Procedure:
 Maximum # iterations   MaxIter         ....   125
 SCF integral mode      SCFMode         .... Direct
   Integral package                     .... SHARK and LIBINT hybrid scheme
 Reset frequency        DirectResetFreq ....    20
 Integral Threshold     Thresh          ....  2.500e-11 Eh
 Primitive CutOff       TCut            ....  2.500e-12 Eh

Convergence Tolerance:
 Convergence Check Mode ConvCheckMode   .... Total+1el-Energy
 Convergence forced     ConvForced      .... 0
 Energy Change          TolE            ....  1.000e-08 Eh
 1-El. energy change                    ....  1.000e-05 Eh
 DIIS Error             TolErr          ....  5.000e-07


Diagonalization of the overlap matrix:
Smallest eigenvalue                        ... 2.507e-04
Time for diagonalization                   ...    0.005 sec
Threshold for overlap eigenvalues          ... 1.000e-08
Number of eigenvalues below threshold      ... 0
Time for construction of square roots      ...    0.005 sec
Total time needed                          ...    0.011 sec

Time for model grid setup =    0.017 sec

------------------------------
INITIAL GUESS: MODEL POTENTIAL
------------------------------
Loading Hartree-Fock densities                     ... done
Calculating cut-offs                               ... done
Initializing the effective Hamiltonian             ... done
Setting up the integral package (SHARK)            ... done
Starting the Coulomb interaction                   ... done (   0.0 sec)
Reading the grid                                   ... done
Mapping shells                                     ... done
Starting the XC term evaluation                    ... done (   0.0 sec)
  promolecular density results
     # of electrons  =     23.999324493
     EX              =    -22.112370014
     EC              =     -0.839819195
     EX+EC           =    -22.952189209
Transforming the Hamiltonian                       ... done (   0.0 sec)
Diagonalizing the Hamiltonian                      ... done (   0.0 sec)
Back transforming the eigenvectors                 ... done (   0.0 sec)
Now organizing SCF variables                       ... done
                      ------------------
                      INITIAL GUESS DONE (   0.1 sec)
                      ------------------
-------------------
DFT GRID GENERATION
-------------------

General Integration Accuracy     IntAcc      ... 4.388
Radial Grid Type                 RadialGrid  ... OptM3 with GC (2021)
Angular Grid (max. ang.)         AngularGrid ... 4 (Lebedev-302)
Angular grid pruning method      GridPruning ... 4 (adaptive)
Weight generation scheme         WeightScheme... Becke
Basis function cutoff            BFCut       ... 1.0000e-11
Integration weight cutoff        WCut        ... 1.0000e-14
Angular grids for H and He will be reduced by one unit
Partially contracted basis set               ... off
Rotationally invariant grid construction     ... off

Total number of grid points                  ...    24922
Total number of batches                      ...      393
Average number of points per batch           ...       63
Average number of grid points per atom       ...     4984
Time for grid setup =    0.105 sec

--------------------
COSX GRID GENERATION
--------------------

GRIDX 1
-------
General Integration Accuracy     IntAcc      ... 3.816
Radial Grid Type                 RadialGrid  ... OptM3 with GC (2021)
Angular Grid (max. ang.)         AngularGrid ... 1 (Lebedev-50)
Angular grid pruning method      GridPruning ... 4 (adaptive)
Weight generation scheme         WeightScheme... Becke
Basis function cutoff            BFCut       ... 1.0000e-11
Integration weight cutoff        WCut        ... 1.0000e-14
Angular grids for H and He will be reduced by one unit
Partially contracted basis set               ... on
Rotationally invariant grid construction     ... off

Total number of grid points                  ...     3191
Total number of batches                      ...       53
Average number of points per batch           ...       60
Average number of grid points per atom       ...      638
UseSFitting                                  ... on

GRIDX 2
-------
General Integration Accuracy     IntAcc      ... 4.020
Radial Grid Type                 RadialGrid  ... OptM3 with GC (2021)
Angular Grid (max. ang.)         AngularGrid ... 2 (Lebedev-110)
Angular grid pruning method      GridPruning ... 4 (adaptive)
Weight generation scheme         WeightScheme... Becke
Basis function cutoff            BFCut       ... 1.0000e-11
Integration weight cutoff        WCut        ... 1.0000e-14
Angular grids for H and He will be reduced by one unit
Partially contracted basis set               ... on
Rotationally invariant grid construction     ... off

Total number of grid points                  ...     7226
Total number of batches                      ...      115
Average number of points per batch           ...       62
Average number of grid points per atom       ...     1445
UseSFitting                                  ... on

GRIDX 3
-------
General Integration Accuracy     IntAcc      ... 4.338
Radial Grid Type                 RadialGrid  ... OptM3 with GC (2021)
Angular Grid (max. ang.)         AngularGrid ... 3 (Lebedev-194)
Angular grid pruning method      GridPruning ... 4 (adaptive)
Weight generation scheme         WeightScheme... Becke
Basis function cutoff            BFCut       ... 1.0000e-11
Integration weight cutoff        WCut        ... 1.0000e-14
Angular grids for H and He will be reduced by one unit
Partially contracted basis set               ... on
Rotationally invariant grid construction     ... off

Total number of grid points                  ...    16015
Total number of batches                      ...      252
Average number of points per batch           ...       63
Average number of grid points per atom       ...     3203
UseSFitting                                  ... on

Time for X-Grid setup             =    0.139 sec

 re-compute Schwartz prescreening matrix in partically contracted basis (1) ...done (   0.065 sec)
--------------
SCF ITERATIONS
--------------
ITER       Energy         Delta-E        Max-DP      RMS-DP      [F,P]     Damp
               ***  Starting incremental Fock matrix formation  ***
  0   -189.2883707610   0.000000000000 0.01563654  0.00024326  0.0969313 0.7000
  1   -189.3179429275  -0.029572166552 0.01114978  0.00016492  0.0359641 0.7000
                               ***Turning on DIIS***
  2   -189.3273606336  -0.009417706102 0.01910277  0.00032978  0.0192246 0.0000
  3   -189.3484005255  -0.021039891821 0.00440334  0.00008999  0.0134696 0.0000
  4   -189.3507800888  -0.002379563293 0.00202130  0.00003875  0.0080419 0.0000
  5   -189.3511870887  -0.000406999958 0.00091964  0.00001901  0.0048051 0.0000
  6   -189.3513083408  -0.000121252082 0.00053782  0.00000990  0.0015405 0.0000
  7   -189.3513430448  -0.000034703972 0.00049436  0.00000898  0.0008653 0.0000
               *** Restarting incremental Fock matrix formation ***
                                   *** Resetting DIIS ***
  8   -189.3513576408  -0.000014595991 0.00019003  0.00000282  0.0003286 0.0000
  9   -189.3513581813  -0.000000540552 0.00009714  0.00000153  0.0003590 0.0000
 10   -189.3513587707  -0.000000589361 0.00005849  0.00000087  0.0001596 0.0000
 11   -189.3513589320  -0.000000161364 0.00003053  0.00000058  0.0000890 0.0000
 12   -189.3513589855  -0.000000053459 0.00001238  0.00000025  0.0000409 0.0000
 13   -189.3513590031  -0.000000017569 0.00000415  0.00000008  0.0000074 0.0000
 14   -189.3513590029   0.000000000208 0.00000104  0.00000002  0.0000013 0.0000
                 **** Energy Check signals convergence ****

               *****************************************************
               *                     SUCCESS                       *
               *           SCF CONVERGED AFTER  15 CYCLES          *
               *****************************************************

Old exchange energy                            =     -4.395236212 Eh
New exchange energy                            =     -4.395236413 Eh
Exchange energy change after final integration =     -0.000000200 Eh
Total energy after final integration           =   -189.351359208 Eh
Final COS-X integration done in                =     0.562 sec

----------------
TOTAL SCF ENERGY
----------------

Total Energy       :         -189.35135921 Eh           -5152.51243 eV

Components:
Nuclear Repulsion  :           69.99273091 Eh            1904.59904 eV
Electronic Energy  :         -259.34409012 Eh           -7057.11147 eV
One Electron Energy:         -389.79989179 Eh          -10606.99430 eV
Two Electron Energy:          130.45580167 Eh            3549.88284 eV
Max COSX asymmetry :            0.00000022 Eh               0.00001 eV

Virial components:
Potential Energy   :         -378.01900234 Eh          -10286.42001 eV
Kinetic Energy     :          188.66764314 Eh            5133.90757 eV
Virial Ratio       :            2.00362392


DFT components:
N(Alpha)           :       12.000001835781 electrons
N(Beta)            :       11.000000754030 electrons
N(Total)           :       23.000002589811 electrons
E(X)               :      -17.532381448536 Eh       
E(C)               :       -0.951955084168 Eh       
E(XC)              :      -18.484336532704 Eh       
DFET-embed. en.    :        0.000000000000 Eh       

---------------
SCF CONVERGENCE
---------------

  Last Energy change         ...   -4.8859e-09  Tolerance :   1.0000e-08
  Last MAX-Density change    ...    0.0000e+00  Tolerance :   1.0000e-07
  Last RMS-Density change    ...    0.0000e+00  Tolerance :   5.0000e-09
  Last DIIS Error            ...    6.3674e-07  Tolerance :   5.0000e-07

             **** THE GBW FILE WAS UPDATED (CH2O2ES.gbw) ****
             **** DENSITY CH2O2ES.scfp WAS UPDATED ****
             **** ENERGY FILE WAS UPDATED (CH2O2ES.en.tmp) ****
----------------------
UHF SPIN CONTAMINATION
----------------------

Warning: in a DFT calculation there is little theoretical justification to 
         calculate <S**2> as in Hartree-Fock theory. We will do it anyways
         but you should keep in mind that the values have only limited relevance

Expectation value of <S**2>     :     0.755893
Ideal value S*(S+1) for S=0.5   :     0.750000
Deviation                       :     0.005893

             **** THE GBW FILE WAS UPDATED (CH2O2ES.gbw) ****
             **** DENSITY CH2O2ES.scfp WAS UPDATED ****
----------------
ORBITAL ENERGIES
----------------
                 SPIN UP ORBITALS
  NO   OCC          E(Eh)            E(eV) 
   0   1.0000     -19.579071      -532.7736 
   1   1.0000     -19.509578      -530.8826 
   2   1.0000     -10.652819      -289.8779 
   3   1.0000      -1.495013       -40.6814 
   4   1.0000      -1.388324       -37.7782 
   5   1.0000      -0.984187       -26.7811 
   6   1.0000      -0.877357       -23.8741 
   7   1.0000      -0.867747       -23.6126 
   8   1.0000      -0.800953       -21.7950 
   9   1.0000      -0.735075       -20.0024 
  10   1.0000      -0.713429       -19.4134 
  11   1.0000      -0.675039       -18.3687 
  12   0.0000      -0.339794        -9.2463 
  13   0.0000      -0.203833        -5.5466 
  14   0.0000      -0.162274        -4.4157 
  15   0.0000      -0.120618        -3.2822 
  16   0.0000      -0.086793        -2.3618 
  17   0.0000      -0.036375        -0.9898 
  18   0.0000       0.003828         0.1042 
  19   0.0000       0.040613         1.1051 
  20   0.0000       0.063221         1.7203 
  21   0.0000       0.100094         2.7237 
  22   0.0000       0.107405         2.9226 
  23   0.0000       0.126628         3.4457 
  24   0.0000       0.143682         3.9098 
  25   0.0000       0.183510         4.9936 
  26   0.0000       0.186981         5.0880 
  27   0.0000       0.231868         6.3095 
  28   0.0000       0.261953         7.1281 
  29   0.0000       0.289620         7.8810 
  30   0.0000       0.299581         8.1520 
  31   0.0000       0.361470         9.8361 
  32   0.0000       0.361632         9.8405 
  33   0.0000       0.483265        13.1503 
  34   0.0000       0.486283        13.2324 
  35   0.0000       0.565974        15.4009 
  36   0.0000       0.571729        15.5575 
  37   0.0000       0.607013        16.5177 
  38   0.0000       0.656710        17.8700 
  39   0.0000       0.712212        19.3803 
  40   0.0000       0.715754        19.4767 
  41   0.0000       0.833275        22.6746 
  42   0.0000       0.835111        22.7245 
  43   0.0000       0.902791        24.5662 
  44   0.0000       0.945667        25.7329 
  45   0.0000       0.952130        25.9088 
  46   0.0000       1.000913        27.2362 
  47   0.0000       1.040866        28.3234 
  48   0.0000       1.093330        29.7510 
  49   0.0000       1.097938        29.8764 
  50   0.0000       1.123656        30.5762 
  51   0.0000       1.205413        32.8009 
  52   0.0000       1.207273        32.8516 
  53   0.0000       1.229907        33.4675 
  54   0.0000       1.314953        35.7817 
  55   0.0000       1.360476        37.0204 
  56   0.0000       1.381416        37.5902 
  57   0.0000       1.489917        40.5427 
  58   0.0000       1.522603        41.4321 
  59   0.0000       1.554128        42.2900 
  60   0.0000       1.568748        42.6878 
  61   0.0000       1.595007        43.4024 
  62   0.0000       1.662855        45.2486 
  63   0.0000       1.708091        46.4795 
  64   0.0000       1.753052        47.7030 
  65   0.0000       1.753153        47.7057 
  66   0.0000       1.852567        50.4109 
  67   0.0000       1.880933        51.1828 
  68   0.0000       1.938199        52.7411 
  69   0.0000       1.957830        53.2753 
  70   0.0000       2.014352        54.8133 
  71   0.0000       2.072220        56.3880 
  72   0.0000       2.134239        58.0756 
  73   0.0000       2.165509        58.9265 
  74   0.0000       2.173068        59.1322 
  75   0.0000       2.226673        60.5909 
  76   0.0000       2.298931        62.5571 
  77   0.0000       2.318339        63.0852 
  78   0.0000       2.394111        65.1471 
  79   0.0000       2.420964        65.8778 
  80   0.0000       2.494786        67.8866 
  81   0.0000       2.530806        68.8667 
  82   0.0000       2.652289        72.1725 
  83   0.0000       2.699733        73.4635 
  84   0.0000       2.711798        73.7918 
  85   0.0000       2.740401        74.5701 
  86   0.0000       2.782043        75.7032 
  87   0.0000       2.877788        78.3086 
  88   0.0000       2.959228        80.5247 
  89   0.0000       3.025760        82.3351 
  90   0.0000       3.056405        83.1690 
  91   0.0000       3.059949        83.2654 
  92   0.0000       3.116418        84.8020 
  93   0.0000       3.276921        89.1695 
  94   0.0000       3.279701        89.2452 
  95   0.0000       3.335631        90.7671 
  96   0.0000       3.349376        91.1412 
  97   0.0000       3.367863        91.6442 
  98   0.0000       3.450603        93.8957 
  99   0.0000       3.479556        94.6835 
 100   0.0000       3.555945        96.7622 
 101   0.0000       3.589138        97.6654 
 102   0.0000       3.653975        99.4297 
 103   0.0000       3.682753       100.2128 
 104   0.0000       3.767784       102.5266 
 105   0.0000       3.783496       102.9542 
 106   0.0000       3.903715       106.2255 
 107   0.0000       3.913628       106.4952 
 108   0.0000       3.981973       108.3550 
 109   0.0000       4.018785       109.3567 
 110   0.0000       4.051985       110.2601 
 111   0.0000       4.091822       111.3441 
 112   0.0000       4.203000       114.3694 
 113   0.0000       4.264448       116.0415 
 114   0.0000       4.399866       119.7265 
 115   0.0000       4.544408       123.6596 
 116   0.0000       4.734706       128.8379 
 117   0.0000       4.786170       130.2383 
 118   0.0000       4.809879       130.8835 
 119   0.0000       4.902648       133.4078 
 120   0.0000       4.918553       133.8406 
 121   0.0000       4.995867       135.9444 
 122   0.0000       5.090032       138.5068 
 123   0.0000       5.260656       143.1497 
 124   0.0000       5.302678       144.2932 
 125   0.0000       5.340981       145.3355 
 126   0.0000       5.470006       148.8464 
 127   0.0000       5.491540       149.4324 
 128   0.0000       5.546653       150.9321 
 129   0.0000       5.575040       151.7046 
 130   0.0000       5.623742       153.0298 
 131   0.0000       5.689457       154.8180 
 132   0.0000       5.762933       156.8174 
 133   0.0000       5.839126       158.8907 
 134   0.0000       5.865296       159.6028 
 135   0.0000       5.949388       161.8911 
 136   0.0000       6.000034       163.2692 
 137   0.0000       6.058121       164.8498 
 138   0.0000       6.187818       168.3791 
 139   0.0000       6.331240       172.2818 
 140   0.0000       6.405741       174.3091 
 141   0.0000       6.479281       176.3102 
 142   0.0000       6.496609       176.7817 
 143   0.0000       6.693837       182.1486 
 144   0.0000       6.716173       182.7564 
 145   0.0000       6.811111       185.3397 
 146   0.0000       6.880045       187.2155 
 147   0.0000       6.930108       188.5778 
 148   0.0000       7.002372       190.5442 
 149   0.0000       7.063257       192.2010 
 150   0.0000       7.163479       194.9282 
 151   0.0000       7.197235       195.8467 
 152   0.0000       7.302558       198.7127 
 153   0.0000       7.391764       201.1401 
 154   0.0000       7.451192       202.7573 
 155   0.0000       7.490965       203.8395 
 156   0.0000       7.538189       205.1245 
 157   0.0000       7.612595       207.1492 
 158   0.0000       7.637116       207.8165 
 159   0.0000       7.748812       210.8559 
 160   0.0000       7.769708       211.4245 
 161   0.0000       7.817112       212.7144 
 162   0.0000       8.108426       220.6415 
 163   0.0000       8.147649       221.7088 
 164   0.0000       8.157125       221.9667 
 165   0.0000       8.211622       223.4496 
 166   0.0000       8.243655       224.3212 
 167   0.0000       8.426496       229.2966 
 168   0.0000       8.433533       229.4881 
 169   0.0000       8.475298       230.6246 
 170   0.0000       8.546861       232.5719 
 171   0.0000       8.657273       235.5764 
 172   0.0000       8.738082       237.7753 
 173   0.0000       8.896040       242.0735 
 174   0.0000       9.034118       245.8308 
 175   0.0000       9.201852       250.3951 
 176   0.0000       9.318907       253.5803 
 177   0.0000       9.358192       254.6493 
 178   0.0000       9.398806       255.7545 
 179   0.0000       9.447684       257.0846 
 180   0.0000       9.500277       258.5157 
 181   0.0000       9.581469       260.7250 
 182   0.0000       9.617242       261.6984 
 183   0.0000       9.633423       262.1388 
 184   0.0000       9.789838       266.3950 
 185   0.0000       9.861555       268.3465 
 186   0.0000       9.868666       268.5400 
 187   0.0000      10.086697       274.4730 
 188   0.0000      10.104033       274.9447 
 189   0.0000      10.241305       278.6801 
 190   0.0000      10.387717       282.6641 
 191   0.0000      10.471701       284.9495 
 192   0.0000      10.500365       285.7295 
 193   0.0000      10.532785       286.6117 
 194   0.0000      10.591805       288.2177 
 195   0.0000      10.596899       288.3563 
 196   0.0000      10.697143       291.0841 
 197   0.0000      10.910830       296.8988 
 198   0.0000      10.933332       297.5111 
 199   0.0000      11.022429       299.9355 
 200   0.0000      11.084707       301.6302 
 201   0.0000      11.167228       303.8757 
 202   0.0000      11.295920       307.3776 
 203   0.0000      11.335532       308.4555 
 204   0.0000      11.434538       311.1496 
 205   0.0000      11.482409       312.4522 
 206   0.0000      11.566895       314.7512 
 207   0.0000      11.651723       317.0595 
 208   0.0000      11.772945       320.3581 
 209   0.0000      11.881760       323.3191 
 210   0.0000      12.027177       327.2761 
 211   0.0000      12.126805       329.9871 
 212   0.0000      12.198537       331.9391 
 213   0.0000      12.333962       335.6242 
 214   0.0000      12.621226       343.4410 
 215   0.0000      12.800054       348.3072 
 216   0.0000      13.294911       361.7729 
 217   0.0000      13.385795       364.2460 
 218   0.0000      13.397643       364.5684 
 219   0.0000      13.525688       368.0527 
 220   0.0000      13.729150       373.5892 
 221   0.0000      15.620416       425.0531 
 222   0.0000      23.866173       649.4316 
 223   0.0000      40.883841      1112.5059 
 224   0.0000      42.092397      1145.3924 

                 SPIN DOWN ORBITALS
  NO   OCC          E(Eh)            E(eV) 
   0   1.0000     -19.555222      -532.1246 
   1   1.0000     -19.505950      -530.7839 
   2   1.0000     -10.654615      -289.9268 
   3   1.0000      -1.456035       -39.6207 
   4   1.0000      -1.366167       -37.1753 
   5   1.0000      -0.970580       -26.4108 
   6   1.0000      -0.845573       -23.0092 
   7   1.0000      -0.823568       -22.4104 
   8   1.0000      -0.788241       -21.4491 
   9   1.0000      -0.719230       -19.5712 
  10   1.0000      -0.664686       -18.0870 
  11   0.0000      -0.531499       -14.4628 
  12   0.0000      -0.336048        -9.1443 
  13   0.0000      -0.198543        -5.4026 
  14   0.0000      -0.156971        -4.2714 
  15   0.0000      -0.113462        -3.0875 
  16   0.0000      -0.078637        -2.1398 
  17   0.0000      -0.037055        -1.0083 
  18   0.0000       0.005791         0.1576 
  19   0.0000       0.053878         1.4661 
  20   0.0000       0.070902         1.9294 
  21   0.0000       0.106926         2.9096 
  22   0.0000       0.115333         3.1384 
  23   0.0000       0.129522         3.5245 
  24   0.0000       0.146949         3.9987 
  25   0.0000       0.186699         5.0803 
  26   0.0000       0.191843         5.2203 
  27   0.0000       0.234707         6.3867 
  28   0.0000       0.275374         7.4933 
  29   0.0000       0.290794         7.9129 
  30   0.0000       0.301393         8.2013 
  31   0.0000       0.366282         9.9670 
  32   0.0000       0.371516        10.1095 
  33   0.0000       0.488502        13.2928 
  34   0.0000       0.492775        13.4091 
  35   0.0000       0.573177        15.5969 
  36   0.0000       0.576263        15.6809 
  37   0.0000       0.612074        16.6554 
  38   0.0000       0.668628        18.1943 
  39   0.0000       0.716152        19.4875 
  40   0.0000       0.720996        19.6193 
  41   0.0000       0.844021        22.9670 
  42   0.0000       0.847522        23.0622 
  43   0.0000       0.917206        24.9584 
  44   0.0000       0.948438        25.8083 
  45   0.0000       0.960891        26.1472 
  46   0.0000       1.005056        27.3490 
  47   0.0000       1.042576        28.3699 
  48   0.0000       1.096768        29.8446 
  49   0.0000       1.108010        30.1505 
  50   0.0000       1.134234        30.8641 
  51   0.0000       1.212011        32.9805 
  52   0.0000       1.224269        33.3141 
  53   0.0000       1.238241        33.6942 
  54   0.0000       1.318578        35.8803 
  55   0.0000       1.361800        37.0565 
  56   0.0000       1.382331        37.6151 
  57   0.0000       1.495338        40.6902 
  58   0.0000       1.524570        41.4857 
  59   0.0000       1.556103        42.3437 
  60   0.0000       1.573135        42.8072 
  61   0.0000       1.600469        43.5510 
  62   0.0000       1.665315        45.3155 
  63   0.0000       1.712556        46.6010 
  64   0.0000       1.757940        47.8360 
  65   0.0000       1.770679        48.1826 
  66   0.0000       1.855372        50.4872 
  67   0.0000       1.892858        51.5073 
  68   0.0000       1.941962        52.8435 
  69   0.0000       1.962173        53.3935 
  70   0.0000       2.027995        55.1845 
  71   0.0000       2.081630        56.6440 
  72   0.0000       2.139081        58.2073 
  73   0.0000       2.174826        59.1800 
  74   0.0000       2.186829        59.5066 
  75   0.0000       2.231030        60.7094 
  76   0.0000       2.304563        62.7104 
  77   0.0000       2.322313        63.1934 
  78   0.0000       2.409036        65.5532 
  79   0.0000       2.426380        66.0252 
  80   0.0000       2.503674        68.1284 
  81   0.0000       2.544143        69.2296 
  82   0.0000       2.657165        72.3051 
  83   0.0000       2.720737        74.0350 
  84   0.0000       2.750029        74.8321 
  85   0.0000       2.762314        75.1664 
  86   0.0000       2.793793        76.0230 
  87   0.0000       2.890853        78.6641 
  88   0.0000       2.975217        80.9598 
  89   0.0000       3.039631        82.7126 
  90   0.0000       3.069116        83.5149 
  91   0.0000       3.080695        83.8300 
  92   0.0000       3.126266        85.0700 
  93   0.0000       3.291526        89.5670 
  94   0.0000       3.292077        89.5820 
  95   0.0000       3.346599        91.0656 
  96   0.0000       3.360747        91.4506 
  97   0.0000       3.391359        92.2836 
  98   0.0000       3.480255        94.7026 
  99   0.0000       3.503046        95.3227 
 100   0.0000       3.577107        97.3380 
 101   0.0000       3.636911        98.9654 
 102   0.0000       3.664139        99.7063 
 103   0.0000       3.691349       100.4467 
 104   0.0000       3.774110       102.6987 
 105   0.0000       3.807463       103.6063 
 106   0.0000       3.913632       106.4953 
 107   0.0000       3.924743       106.7977 
 108   0.0000       3.986949       108.4904 
 109   0.0000       4.035706       109.8171 
 110   0.0000       4.066858       110.6648 
 111   0.0000       4.098412       111.5234 
 112   0.0000       4.205071       114.4258 
 113   0.0000       4.281337       116.5011 
 114   0.0000       4.411635       120.0467 
 115   0.0000       4.553180       123.8983 
 116   0.0000       4.741193       129.0144 
 117   0.0000       4.800547       130.6295 
 118   0.0000       4.816483       131.0632 
 119   0.0000       4.902593       133.4063 
 120   0.0000       4.916054       133.7726 
 121   0.0000       4.999304       136.0380 
 122   0.0000       5.088494       138.4650 
 123   0.0000       5.263799       143.2353 
 124   0.0000       5.303274       144.3094 
 125   0.0000       5.344706       145.4368 
 126   0.0000       5.471192       148.8787 
 127   0.0000       5.492207       149.4505 
 128   0.0000       5.545053       150.8886 
 129   0.0000       5.576906       151.7553 
 130   0.0000       5.622785       153.0038 
 131   0.0000       5.695282       154.9765 
 132   0.0000       5.768204       156.9608 
 133   0.0000       5.841689       158.9604 
 134   0.0000       5.869733       159.7236 
 135   0.0000       5.959198       162.1580 
 136   0.0000       6.010841       163.5633 
 137   0.0000       6.061021       164.9288 
 138   0.0000       6.198489       168.6695 
 139   0.0000       6.336406       172.4224 
 140   0.0000       6.407415       174.3546 
 141   0.0000       6.483562       176.4267 
 142   0.0000       6.496430       176.7769 
 143   0.0000       6.705494       182.4658 
 144   0.0000       6.716529       182.7661 
 145   0.0000       6.816605       185.4893 
 146   0.0000       6.884170       187.3278 
 147   0.0000       6.935074       188.7130 
 148   0.0000       7.011730       190.7989 
 149   0.0000       7.070332       192.3935 
 150   0.0000       7.179519       195.3647 
 151   0.0000       7.204002       196.0309 
 152   0.0000       7.314861       199.0475 
 153   0.0000       7.401164       201.3959 
 154   0.0000       7.458712       202.9619 
 155   0.0000       7.491081       203.8427 
 156   0.0000       7.551993       205.5002 
 157   0.0000       7.613444       207.1724 
 158   0.0000       7.639003       207.8678 
 159   0.0000       7.768874       211.4018 
 160   0.0000       7.774293       211.5493 
 161   0.0000       7.835885       213.2253 
 162   0.0000       8.114223       220.7992 
 163   0.0000       8.163330       222.1355 
 164   0.0000       8.168226       222.2687 
 165   0.0000       8.218895       223.6475 
 166   0.0000       8.246311       224.3935 
 167   0.0000       8.488755       230.9908 
 168   0.0000       8.493132       231.1099 
 169   0.0000       8.499715       231.2890 
 170   0.0000       8.564301       233.0465 
 171   0.0000       8.696632       236.6474 
 172   0.0000       8.769645       238.6342 
 173   0.0000       8.907681       242.3903 
 174   0.0000       9.048499       246.2222 
 175   0.0000       9.227547       251.0943 
 176   0.0000       9.331555       253.9245 
 177   0.0000       9.367832       254.9117 
 178   0.0000       9.408216       256.0106 
 179   0.0000       9.460080       257.4219 
 180   0.0000       9.520382       259.0628 
 181   0.0000       9.600549       261.2442 
 182   0.0000       9.630384       262.0561 
 183   0.0000       9.641910       262.3697 
 184   0.0000       9.874617       268.7020 
 185   0.0000       9.874856       268.7085 
 186   0.0000       9.876855       268.7629 
 187   0.0000      10.099711       274.8271 
 188   0.0000      10.114915       275.2408 
 189   0.0000      10.275997       279.6241 
 190   0.0000      10.424937       283.6770 
 191   0.0000      10.489002       285.4203 
 192   0.0000      10.523310       286.3538 
 193   0.0000      10.598321       288.3950 
 194   0.0000      10.616300       288.8842 
 195   0.0000      10.664060       290.1838 
 196   0.0000      10.706293       291.3330 
 197   0.0000      10.942988       297.7738 
 198   0.0000      10.977190       298.7045 
 199   0.0000      11.045606       300.5662 
 200   0.0000      11.114277       302.4349 
 201   0.0000      11.187787       304.4352 
 202   0.0000      11.300890       307.5129 
 203   0.0000      11.380770       309.6865 
 204   0.0000      11.441579       311.3412 
 205   0.0000      11.495901       312.8194 
 206   0.0000      11.607734       315.8625 
 207   0.0000      11.734710       319.3177 
 208   0.0000      11.811368       321.4037 
 209   0.0000      11.938870       324.8732 
 210   0.0000      12.045738       327.7812 
 211   0.0000      12.146524       330.5237 
 212   0.0000      12.211909       332.3029 
 213   0.0000      12.347687       335.9976 
 214   0.0000      12.634850       343.8118 
 215   0.0000      12.812965       348.6585 
 216   0.0000      13.339542       362.9874 
 217   0.0000      13.386477       364.2646 
 218   0.0000      13.425921       365.3379 
 219   0.0000      13.546498       368.6189 
 220   0.0000      13.749015       374.1297 
 221   0.0000      15.622704       425.1154 
 222   0.0000      23.865846       649.4227 
 223   0.0000      40.912385      1113.2826 
 224   0.0000      42.096261      1145.4975 

                    ********************************
                    * MULLIKEN POPULATION ANALYSIS *
                    ********************************

--------------------------------------------
MULLIKEN ATOMIC CHARGES AND SPIN POPULATIONS
--------------------------------------------
   0 O :   -0.125511    0.120464
   1 C :    0.465834   -0.059670
   2 O :    0.109962    0.858383
   3 H :    0.302471   -0.001564
   4 H :    0.247244    0.082387
Sum of atomic charges         :    1.0000000
Sum of atomic spin populations:    1.0000000

-----------------------------------------------------
MULLIKEN REDUCED ORBITAL CHARGES AND SPIN POPULATIONS
-----------------------------------------------------
CHARGE
  0 O s       :     3.775029  s :     3.775029
      pz      :     1.483700  p :     4.311164
      px      :     1.245947
      py      :     1.581516
      dz2     :     0.006477  d :     0.036009
      dxz     :     0.013423
      dyz     :     0.007991
      dx2y2   :     0.004287
      dxy     :     0.003833
      f0      :     0.000185  f :     0.003130
      f+1     :     0.000271
      f-1     :     0.000287
      f+2     :     0.000630
      f-2     :     0.000623
      f+3     :     0.000659
      f-3     :     0.000475
      g0      :     0.000018  g :     0.000178
      g+1     :     0.000022
      g-1     :     0.000006
      g+2     :     0.000019
      g-2     :     0.000019
      g+3     :     0.000041
      g-3     :     0.000034
      g+4     :     0.000014
      g-4     :     0.000007
  1 C s       :     3.070503  s :     3.070503
      pz      :     0.709591  p :     2.229987
      px      :     0.877790
      py      :     0.642607
      dz2     :     0.055788  d :     0.207105
      dxz     :     0.055340
      dyz     :     0.049295
      dx2y2   :     0.027988
      dxy     :     0.018694
      f0      :     0.004352  f :     0.021873
      f+1     :     0.003919
      f-1     :     0.003487
      f+2     :     0.002972
      f-2     :     0.003254
      f+3     :     0.002793
      f-3     :     0.001095
      g0      :     0.001045  g :     0.004698
      g+1     :     0.000851
      g-1     :     0.000591
      g+2     :     0.000490
      g-2     :     0.000616
      g+3     :     0.000427
      g-3     :     0.000401
      g+4     :     0.000160
      g-4     :     0.000117
  2 O s       :     3.842725  s :     3.842725
      pz      :     1.408519  p :     4.002335
      px      :     1.104793
      py      :     1.489023
      dz2     :     0.015020  d :     0.041534
      dxz     :     0.010072
      dyz     :     0.012984
      dx2y2   :     0.001797
      dxy     :     0.001662
      f0      :     0.000993  f :     0.003252
      f+1     :     0.000728
      f-1     :     0.000789
      f+2     :     0.000361
      f-2     :     0.000337
      f+3     :     0.000016
      f-3     :     0.000028
      g0      :     0.000065  g :     0.000192
      g+1     :     0.000023
      g-1     :     0.000053
      g+2     :     0.000025
      g-2     :     0.000022
      g+3     :     0.000003
      g-3     :     0.000002
      g+4     :    -0.000000
      g-4     :     0.000000
  3 H s       :     0.612367  s :     0.612367
      pz      :     0.025551  p :     0.075061
      px      :     0.022655
      py      :     0.026855
      dz2     :     0.001267  d :     0.009154
      dxz     :     0.002924
      dyz     :     0.000958
      dx2y2   :     0.001217
      dxy     :     0.002788
      f0      :     0.000054  f :     0.000948
      f+1     :     0.000250
      f-1     :     0.000004
      f+2     :     0.000123
      f-2     :     0.000191
      f+3     :     0.000116
      f-3     :     0.000209
  4 H s       :     0.711671  s :     0.711671
      pz      :     0.012751  p :     0.037152
      px      :     0.017993
      py      :     0.006408
      dz2     :     0.000788  d :     0.003866
      dxz     :     0.001124
      dyz     :     0.000308
      dx2y2   :     0.000653
      dxy     :     0.000993
      f0      :    -0.000000  f :     0.000067
      f+1     :     0.000011
      f-1     :     0.000006
      f+2     :    -0.000023
      f-2     :     0.000024
      f+3     :     0.000002
      f-3     :     0.000047

SPIN
  0 O s       :     0.000989  s :     0.000989
      pz      :     0.079733  p :     0.119683
      px      :     0.021721
      py      :     0.018229
      dz2     :    -0.000086  d :    -0.000299
      dxz     :    -0.000011
      dyz     :    -0.000192
      dx2y2   :     0.000076
      dxy     :    -0.000086
      f0      :    -0.000007  f :     0.000086
      f+1     :     0.000031
      f-1     :     0.000000
      f+2     :     0.000000
      f-2     :     0.000035
      f+3     :     0.000022
      f-3     :     0.000005
      g0      :     0.000001  g :     0.000006
      g+1     :    -0.000000
      g-1     :     0.000000
      g+2     :     0.000001
      g-2     :     0.000002
      g+3     :     0.000000
      g-3     :     0.000001
      g+4     :     0.000000
      g-4     :     0.000000
  1 C s       :    -0.014729  s :    -0.014729
      pz      :    -0.015334  p :    -0.082377
      px      :    -0.037834
      py      :    -0.029210
      dz2     :    -0.001786  d :     0.035808
      dxz     :     0.031768
      dyz     :     0.001374
      dx2y2   :     0.001799
      dxy     :     0.002653
      f0      :     0.000152  f :     0.001079
      f+1     :     0.000436
      f-1     :     0.000051
      f+2     :     0.000292
      f-2     :     0.000038
      f+3     :    -0.000012
      f-3     :     0.000122
      g0      :     0.000048  g :     0.000549
      g+1     :     0.000169
      g-1     :     0.000053
      g+2     :     0.000092
      g-2     :     0.000131
      g+3     :     0.000016
      g-3     :     0.000027
      g+4     :     0.000006
      g-4     :     0.000007
  2 O s       :     0.020135  s :     0.020135
      pz      :     0.010212  p :     0.840182
      px      :     0.726723
      py      :     0.103247
      dz2     :    -0.000227  d :    -0.001180
      dxz     :    -0.000605
      dyz     :    -0.000343
      dx2y2   :     0.000055
      dxy     :    -0.000061
      f0      :    -0.000293  f :    -0.000725
      f+1     :    -0.000216
      f-1     :    -0.000135
      f+2     :    -0.000014
      f-2     :    -0.000026
      f+3     :    -0.000031
      f-3     :    -0.000010
      g0      :    -0.000009  g :    -0.000030
      g+1     :    -0.000008
      g-1     :    -0.000005
      g+2     :    -0.000002
      g-2     :    -0.000002
      g+3     :    -0.000002
      g-3     :    -0.000002
      g+4     :    -0.000000
      g-4     :    -0.000000
  3 H s       :    -0.000659  s :    -0.000659
      pz      :    -0.000381  p :    -0.001035
      px      :    -0.000302
      py      :    -0.000353
      dz2     :     0.000179  d :     0.000083
      dxz     :    -0.000038
      dyz     :     0.000058
      dx2y2   :    -0.000041
      dxy     :    -0.000075
      f0      :     0.000004  f :     0.000047
      f+1     :     0.000031
      f-1     :     0.000000
      f+2     :     0.000000
      f-2     :     0.000009
      f+3     :     0.000005
      f-3     :    -0.000002
  4 H s       :     0.082085  s :     0.082085
      pz      :    -0.000004  p :     0.000415
      px      :     0.000544
      py      :    -0.000125
      dz2     :    -0.000058  d :    -0.000116
      dxz     :    -0.000013
      dyz     :    -0.000018
      dx2y2   :    -0.000009
      dxy     :    -0.000019
      f0      :     0.000007  f :     0.000003
      f+1     :    -0.000004
      f-1     :     0.000002
      f+2     :     0.000003
      f-2     :    -0.000002
      f+3     :    -0.000000
      f-3     :    -0.000002


                     *******************************
                     * LOEWDIN POPULATION ANALYSIS *
                     *******************************

-------------------------------------------
LOEWDIN ATOMIC CHARGES AND SPIN POPULATIONS
-------------------------------------------
   0 O :    0.928100    0.094037
   1 C :   -0.364205    0.136879
   2 O :    0.758159    0.704416
   3 H :   -0.299734    0.010570
   4 H :   -0.022319    0.054098

----------------------------------------------------
LOEWDIN REDUCED ORBITAL CHARGES AND SPIN POPULATIONS
----------------------------------------------------
CHARGE
  0 O s       :     3.074686  s :     3.074686
      pz      :     1.345843  p :     3.861105
      px      :     1.182299
      py      :     1.332964
      dz2     :     0.018095  d :     0.114614
      dxz     :     0.039825
      dyz     :     0.012912
      dx2y2   :     0.024488
      dxy     :     0.019295
      f0      :     0.002201  f :     0.020769
      f+1     :     0.006125
      f-1     :     0.001825
      f+2     :     0.003493
      f-2     :     0.003939
      f+3     :     0.001420
      f-3     :     0.001767
      g0      :     0.000019  g :     0.000725
      g+1     :     0.000129
      g-1     :     0.000035
      g+2     :     0.000046
      g-2     :     0.000154
      g+3     :     0.000080
      g-3     :     0.000110
      g+4     :     0.000039
      g-4     :     0.000112
  1 C s       :     2.686311  s :     2.686311
      pz      :     0.916687  p :     2.432073
      px      :     0.868707
      py      :     0.646679
      dz2     :     0.270535  d :     0.903351
      dxz     :     0.236266
      dyz     :     0.212236
      dx2y2   :     0.108328
      dxy     :     0.075987
      f0      :     0.057478  f :     0.293744
      f+1     :     0.074639
      f-1     :     0.053874
      f+2     :     0.030734
      f-2     :     0.039675
      f+3     :     0.022943
      f-3     :     0.014402
      g0      :     0.010711  g :     0.048726
      g+1     :     0.007290
      g-1     :     0.006716
      g+2     :     0.006689
      g-2     :     0.007923
      g+3     :     0.003735
      g-3     :     0.002509
      g+4     :     0.001769
      g-4     :     0.001384
  2 O s       :     3.326114  s :     3.326114
      pz      :     1.477266  p :     3.791946
      px      :     0.975044
      py      :     1.339635
      dz2     :     0.035666  d :     0.100535
      dxz     :     0.032151
      dyz     :     0.025200
      dx2y2   :     0.004092
      dxy     :     0.003426
      f0      :     0.005706  f :     0.022042
      f+1     :     0.006828
      f-1     :     0.005282
      f+2     :     0.002134
      f-2     :     0.001816
      f+3     :     0.000083
      f-3     :     0.000193
      g0      :     0.000256  g :     0.001205
      g+1     :     0.000281
      g-1     :     0.000273
      g+2     :     0.000192
      g-2     :     0.000163
      g+3     :     0.000013
      g-3     :     0.000025
      g+4     :     0.000000
      g-4     :     0.000001
  3 H s       :     0.650601  s :     0.650601
      pz      :     0.148403  p :     0.414585
      px      :     0.162512
      py      :     0.103670
      dz2     :     0.036719  d :     0.195761
      dxz     :     0.056900
      dyz     :     0.018611
      dx2y2   :     0.034333
      dxy     :     0.049198
      f0      :     0.002079  f :     0.038787
      f+1     :     0.011677
      f-1     :     0.000240
      f+2     :     0.005690
      f-2     :     0.007624
      f+3     :     0.004086
      f-3     :     0.007391
  4 H s       :     0.768365  s :     0.768365
      pz      :     0.056337  p :     0.183379
      px      :     0.096412
      py      :     0.030630
      dz2     :     0.011957  d :     0.062363
      dxz     :     0.019427
      dyz     :     0.004679
      dx2y2   :     0.013713
      dxy     :     0.012587
      f0      :     0.000778  f :     0.008213
      f+1     :     0.002265
      f-1     :     0.000107
      f+2     :     0.001685
      f-2     :     0.001050
      f+3     :     0.001109
      f-3     :     0.001220

SPIN
  0 O s       :     0.002021  s :     0.002021
      pz      :     0.062465  p :     0.095125
      px      :     0.017929
      py      :     0.014731
      dz2     :    -0.000494  d :    -0.002731
      dxz     :    -0.000781
      dyz     :    -0.000485
      dx2y2   :    -0.000532
      dxy     :    -0.000439
      f0      :    -0.000059  f :    -0.000363
      f+1     :     0.000007
      f-1     :    -0.000072
      f+2     :    -0.000147
      f-2     :    -0.000081
      f+3     :    -0.000048
      f-3     :     0.000036
      g0      :    -0.000001  g :    -0.000014
      g+1     :     0.000004
      g-1     :    -0.000002
      g+2     :    -0.000001
      g-2     :    -0.000005
      g+3     :    -0.000007
      g-3     :    -0.000002
      g+4     :    -0.000001
      g-4     :     0.000001
  1 C s       :    -0.002603  s :    -0.002603
      pz      :    -0.007133  p :    -0.038656
      px      :    -0.012269
      py      :    -0.019254
      dz2     :     0.000798  d :     0.121904
      dxz     :     0.096841
      dyz     :     0.009518
      dx2y2   :     0.006366
      dxy     :     0.008382
      f0      :     0.002685  f :     0.047614
      f+1     :     0.026869
      f-1     :     0.005894
      f+2     :     0.005304
      f-2     :     0.004605
      f+3     :     0.000418
      f-3     :     0.001838
      g0      :     0.000522  g :     0.008620
      g+1     :     0.003018
      g-1     :     0.000795
      g+2     :     0.001714
      g-2     :     0.002250
      g+3     :     0.000051
      g-3     :     0.000176
      g+4     :     0.000038
      g-4     :     0.000056
  2 O s       :     0.007252  s :     0.007252
      pz      :     0.007552  p :     0.695662
      px      :     0.603682
      py      :     0.084428
      dz2     :    -0.000540  d :     0.001596
      dxz     :     0.002267
      dyz     :    -0.000510
      dx2y2   :     0.000205
      dxy     :     0.000175
      f0      :    -0.000363  f :    -0.000082
      f+1     :     0.000322
      f-1     :    -0.000106
      f+2     :     0.000006
      f-2     :     0.000038
      f+3     :    -0.000003
      f-3     :     0.000024
      g0      :    -0.000016  g :    -0.000012
      g+1     :     0.000005
      g-1     :    -0.000003
      g+2     :     0.000001
      g-2     :     0.000003
      g+3     :    -0.000002
      g-3     :    -0.000001
      g+4     :    -0.000000
      g-4     :    -0.000000
  3 H s       :     0.002543  s :     0.002543
      pz      :     0.000010  p :     0.000921
      px      :     0.001092
      py      :    -0.000181
      dz2     :     0.003463  d :     0.005469
      dxz     :    -0.000055
      dyz     :     0.000426
      dx2y2   :     0.001196
      dxy     :     0.000439
      f0      :     0.000126  f :     0.001636
      f+1     :     0.000992
      f-1     :    -0.000003
      f+2     :     0.000009
      f-2     :     0.000145
      f+3     :     0.000218
      f-3     :     0.000149
  4 H s       :     0.059692  s :     0.059692
      pz      :    -0.001853  p :    -0.003913
      px      :    -0.001157
      py      :    -0.000903
      dz2     :    -0.000267  d :    -0.001519
      dxz     :    -0.000465
      dyz     :    -0.000165
      dx2y2   :    -0.000186
      dxy     :    -0.000436
      f0      :     0.000032  f :    -0.000162
      f+1     :    -0.000103
      f-1     :     0.000013
      f+2     :    -0.000010
      f-2     :    -0.000050
      f+3     :    -0.000018
      f-3     :    -0.000026


                      *****************************
                      * MAYER POPULATION ANALYSIS *
                      *****************************

  NA   - Mulliken gross atomic population
  ZA   - Total nuclear charge
  QA   - Mulliken gross atomic charge
  VA   - Mayer's total valence
  BVA  - Mayer's bonded valence
  FA   - Mayer's free valence

  ATOM       NA         ZA         QA         VA         BVA        FA
  0 O      8.1255     8.0000    -0.1255     2.5139     2.4987     0.0152
  1 C      5.5342     6.0000     0.4658     4.0169     4.0085     0.0083
  2 O      7.8900     8.0000     0.1100     2.5934     1.9477     0.6457
  3 H      0.6975     1.0000     0.3025     0.9677     0.9676     0.0000
  4 H      0.7528     1.0000     0.2472     0.9516     0.9449     0.0067

  Mayer bond orders larger than 0.100000
B(  0-O ,  1-C ) :   1.3943 B(  0-O ,  2-O ) :   0.1656 B(  0-O ,  3-H ) :   0.9199 
B(  1-C ,  2-O ) :   1.7208 B(  1-C ,  4-H ) :   0.8652 

-------
TIMINGS
-------

Total SCF time: 0 days 0 hours 0 min 7 sec 

Total time                  ....       7.961 sec
Sum of individual times     ....       7.572 sec  ( 95.1%)

Fock matrix formation       ....       6.666 sec  ( 83.7%)
  Split-RI-J                ....       0.588 sec  (  8.8% of F)
  Chain of spheres X        ....       4.150 sec  ( 62.3% of F)
  XC integration            ....       1.769 sec  ( 26.5% of F)
    Basis function eval.    ....       0.183 sec  ( 10.3% of XC)
    Density eval.           ....       0.555 sec  ( 31.4% of XC)
    XC-Functional eval.     ....       0.035 sec  (  2.0% of XC)
    XC-Potential eval.      ....       0.677 sec  ( 38.3% of XC)
Diagonalization             ....       0.335 sec  (  4.2%)
Density matrix formation    ....       0.028 sec  (  0.3%)
Population analysis         ....       0.049 sec  (  0.6%)
Initial guess               ....       0.040 sec  (  0.5%)
Orbital Transformation      ....       0.000 sec  (  0.0%)
Orbital Orthonormalization  ....       0.000 sec  (  0.0%)
DIIS solution               ....       0.195 sec  (  2.4%)
Grid generation             ....       0.261 sec  (  3.3%)

Maximum memory used throughout the entire SCF-calculation: 68.8 MB

-------------------------   --------------------
FINAL SINGLE POINT ENERGY      -189.351359208030
-------------------------   --------------------



           ************************************************************
           *        Program running with 12 parallel MPI-processes    *
           *              working on a common directory               *
           ************************************************************
------------------------------------------------------------------------------
                         ORCA SCF GRADIENT CALCULATION
------------------------------------------------------------------------------

 ... reading COSX grid (gridx3)
Gradient of the Kohn-Sham DFT energy:
Kohn-Sham wavefunction type      ... UKS
Hartree-Fock exchange scaling    ...    0.200
Number of operators              ...    2
Number of atoms                  ...    5
Basis set dimensions             ...  225
Integral neglect threshold       ... 2.5e-11
Integral primitive cutoff        ... 2.5e-12
SHARK Integral package           ... ON

Nuc. rep. gradient       (SHARK) ... done (  0.0 sec)
HCore & Overlap gradient (SHARK) ... done (  0.0 sec)
RI-J gradient            (SHARK) ... done (  0.1 sec)
COSX-gradient                    ... done (  0.8 sec)
Exchange-correlation gradient    ... done

------------------
CARTESIAN GRADIENT
------------------

   1   O   :    0.023854188    0.023459516    0.042599923
   2   C   :   -0.021076176   -0.033918040   -0.072189213
   3   O   :   -0.001401801    0.010141067    0.028066084
   4   H   :   -0.010925888   -0.006092797   -0.007296731
   5   H   :    0.009663599    0.006459580    0.009279062

Difference to translation invariance:
           :    0.0001139213    0.0000493261    0.0004591248

Difference to rotation invariance:
           :   -0.0001460289   -0.0002206722    0.0001603669

Norm of the cartesian gradient     ...    0.1051832157
RMS gradient                       ...    0.0271581895
MAX gradient                       ...    0.0721892131

-------
TIMINGS
-------

Total SCF gradient time            ...        1.652 sec

One electron gradient       ....       0.016 sec  (  1.0%)
RI-J Coulomb gradient       ....       0.140 sec  (  8.5%)
COSX gradient               ....       0.848 sec  ( 51.3%)
XC gradient                 ....       0.370 sec  ( 22.4%)

Maximum memory used throughout the entire SCFGRAD-calculation: 41.0 MB
------------------------------------------------------------------------------
                         ORCA GEOMETRY RELAXATION STEP
------------------------------------------------------------------------------

Reading the OPT-File                    .... done
Getting information on internals        .... done
Copying old internal coords+grads       .... done
Making the new internal coordinates     .... (new redundants).... done
Validating the new internal coordinates .... (new redundants).... done
Calculating the B-matrix                .... done
Calculating the G,G- and P matrices     .... done
Transforming gradient to internals      .... done
Projecting the internal gradient        .... done
Number of atoms                         ....   5
Number of internal coordinates          ....  10
Current Energy                          ....  -189.351359208 Eh
Current gradient norm                   ....     0.105183216 Eh/bohr
Maximum allowed component of the step   ....  0.300
Current trust radius                    ....  0.300
Evaluating the initial hessian          ....  (Almloef) done
Projecting the Hessian                  .... done
Forming the augmented Hessian           .... done
Diagonalizing the augmented Hessian     .... done
Last element of RFO vector              ....  0.994098425
Lowest eigenvalues of augmented Hessian:
 -0.005880547  0.031759650  0.031759677  0.347713328  0.367898813
Length of the computed step             ....  0.109125905
The final length of the internal step   ....  0.109125905
Converting the step to cartesian space:
 Initial RMS(Int)=    0.0345086413
Transforming coordinates:
 Iter   0:  RMS(Cart)=    0.0220881177 RMS(Int)=    0.0345864226
 Iter   1:  RMS(Cart)=    0.0006302298 RMS(Int)=    0.0007174910
 Iter   2:  RMS(Cart)=    0.0000176196 RMS(Int)=    0.0000181001
 Iter   3:  RMS(Cart)=    0.0000008696 RMS(Int)=    0.0000011011
 Iter   4:  RMS(Cart)=    0.0000000313 RMS(Int)=    0.0000000300
done
Storing new coordinates                 .... done

                                .--------------------.
          ----------------------|Geometry convergence|-------------------------
          Item                value                   Tolerance       Converged
          ---------------------------------------------------------------------
          RMS gradient        0.0183718810            0.0001000000      NO
          MAX gradient        0.0366174314            0.0003000000      NO
          RMS step            0.0345086413            0.0020000000      NO
          MAX step            0.0665897989            0.0040000000      NO
          ........................................................
          Max(Bonds)      0.0293      Max(Angles)    3.82
          Max(Dihed)        0.05      Max(Improp)    0.00
          ---------------------------------------------------------------------

The optimization has not yet converged - more geometry cycles are needed


    ---------------------------------------------------------------------------
                         Redundant Internal Coordinates
[...]

  Mayer bond orders larger than 0.100000
B(  0-O ,  1-C ) :   1.5016 B(  0-O ,  2-O ) :   0.1322 B(  0-O ,  3-H ) :   0.8967 
B(  1-C ,  2-O ) :   1.5979 B(  1-C ,  4-H ) :   0.8723 

-------
TIMINGS
-------

Total SCF time: 0 days 0 hours 0 min 5 sec 

Total time                  ....       5.076 sec
Sum of individual times     ....       4.805 sec  ( 94.7%)

Fock matrix formation       ....       4.220 sec  ( 83.1%)
  Split-RI-J                ....       0.365 sec  (  8.7% of F)
  Chain of spheres X        ....       2.879 sec  ( 68.2% of F)
  XC integration            ....       0.891 sec  ( 21.1% of F)
    Basis function eval.    ....       0.102 sec  ( 11.4% of XC)
    Density eval.           ....       0.312 sec  ( 35.0% of XC)
    XC-Functional eval.     ....       0.020 sec  (  2.2% of XC)
    XC-Potential eval.      ....       0.323 sec  ( 36.2% of XC)
Diagonalization             ....       0.179 sec  (  3.5%)
Density matrix formation    ....       0.013 sec  (  0.2%)
Population analysis         ....       0.062 sec  (  1.2%)
Initial guess               ....       0.029 sec  (  0.6%)
Orbital Transformation      ....       0.000 sec  (  0.0%)
Orbital Orthonormalization  ....       0.021 sec  (  0.4%)
DIIS solution               ....       0.087 sec  (  1.7%)
Grid generation             ....       0.216 sec  (  4.3%)

Maximum memory used throughout the entire SCF-calculation: 68.8 MB

-------------------------   --------------------
FINAL SINGLE POINT ENERGY      -189.360204822889
-------------------------   --------------------

                                *** OPTIMIZATION RUN DONE ***

                            ***************************************
                            *     ORCA property calculations      *
                            ***************************************

                                    ---------------------
                                    Active property flags
                                    ---------------------
   (+) Dipole Moment


------------------------------------------------------------------------------
                       ORCA ELECTRIC PROPERTIES CALCULATION
------------------------------------------------------------------------------

Dipole Moment Calculation                       ... on
Quadrupole Moment Calculation                   ... off
Polarizability Calculation                      ... off
GBWName                                         ... CH2O2ES.gbw
Electron density                                ... CH2O2ES.scfp
The origin for moment calculation is the CENTER OF MASS  = (-0.018411, -0.007001 -0.003159)

-------------
DIPOLE MOMENT
-------------
                                X             Y             Z
Electronic contribution:     -0.03577      -0.28351      -0.71496
Nuclear contribution   :      0.05104       0.37547       0.94366
                        -----------------------------------------
Total Dipole Moment    :      0.01526       0.09197       0.22870
                        -----------------------------------------
Magnitude (a.u.)       :      0.24697
Magnitude (Debye)      :      0.62774



--------------------
Rotational spectrum 
--------------------
 
Rotational constants in cm-1:     2.599088     0.406957     0.351863 
Rotational constants in MHz : 77918.709256 12200.261213 10548.595965 

 Dipole components along the rotational axes: 
x,y,z [a.u.] :     0.230395    -0.088941     0.000151 
x,y,z [Debye]:     0.585617    -0.226070     0.000383 

 


           ************************************************************
           *        Program running with 12 parallel MPI-processes    *
           *              working on a common directory               *
           ************************************************************

-------------------------------------------------------------------------------
                               ORCA SCF HESSIAN
-------------------------------------------------------------------------------

                   --------- SHARK INITIALIZATION DONE ---------

Hessian of the Kohn-Sham DFT energy:
Kohn-Sham wavefunction type                      ... UKS
Hartree-Fock exchange scaling                    ...    0.200
Number of operators                              ...    2
Number of atoms                                  ...    5
Basis set dimensions                             ...  225
Integral neglect threshold                       ... 2.5e-11
Integral primitive cutoff                        ... 2.5e-12

Setting up DFT Hessian calculations              ... 

HESS GRID
---------

General Integration Accuracy     IntAcc      ... 4.629
Radial Grid Type                 RadialGrid  ... OptM3 with GC (2021)
Angular Grid (max. ang.)         AngularGrid ... 5 (Lebedev-434)
Angular grid pruning method      GridPruning ... 4 (adaptive)
Weight generation scheme         WeightScheme... Becke
Basis function cutoff            BFCut       ... 1.0000e-11
Integration weight cutoff        WCut        ... 1.0000e-14
Angular grids for H and He will be reduced by one unit
Partially contracted basis set               ... off
Rotationally invariant grid construction     ... off

Total number of grid points                  ...    38989
Total number of batches                      ...      612
Average number of points per batch           ...       63
Average number of grid points per atom       ...     7798

Building densities                               ... done   (      0.0 sec)
Calculating rho(r) on the grid                   ... done   (      0.1 sec)
Building xc-kernel on the grid                   ... done   (      0.0 sec)
                                                     done   (      0.4 sec)

Nuclear repulsion Hessian  (SHARK)               ... done   (      0.0 sec)

----------------------------------------------
Forming right-hand sides of CP-SCF equations     ...
----------------------------------------------
One electron integral derivatives  (SHARK)       ... done   (      0.0 sec)
Transforming the overlap derivative matrices     ... done   (      0.1 sec)
Making the Q(x) pseudodensities                  ... done   (      0.0 sec)
Adding the E*S(x)*S(y) terms to the Hessian      ... done   (      0.0 sec)
Calculating energy weighted overlap derivatives  ... done   (      0.0 sec)
Two electron integral derivatives (SHARK-RI)     ... done   (     16.4 sec)
Exchange-correlation integral derivatives        ... done   (      9.3 sec)
tr(F(y)Q(x)) contribution to the Hessian         ... done   (      0.0 sec)
Response fock operator R(S(x)) (SHARK-RIJCOSX)   ... done   (      2.1 sec)
XC Response fock operator R(S(x))                ... done   (      1.6 sec)
tr(F(y)S(x)) contribution to the Hessian         ... done   (      0.0 sec)
Transforming and finalizing RHSs                 ... done   (      0.0 sec)

----------------------------------------------
Solving the CP-SCF equations (RIJCOSX)           ...
----------------------------------------------
     CP-SCF ITERATION   0:   6.8336e-01 (   1.2 sec   0/ 15 done)
     CP-SCF ITERATION   1:   1.6084e-01 (   1.2 sec   0/ 15 done)
     CP-SCF ITERATION   2:   9.8431e-02 (   1.2 sec   0/ 15 done)
     CP-SCF ITERATION   3:   3.6115e-02 (   1.1 sec   0/ 15 done)
     CP-SCF ITERATION   4:   1.2955e-02 (   1.2 sec   0/ 15 done)
     CP-SCF ITERATION   5:   7.6491e-03 (   1.2 sec   0/ 15 done)
     CP-SCF ITERATION   6:   3.8437e-03 (   1.2 sec   0/ 15 done)
     CP-SCF ITERATION   7:   1.3718e-03 (   1.1 sec   0/ 15 done)
     CP-SCF ITERATION   8:   4.9511e-04 (   1.2 sec   2/ 15 done)
     CP-SCF ITERATION   9:   1.2397e-04 (   1.0 sec  13/ 15 done)
     CP-SCF ITERATION  10:   3.8141e-05 (   0.3 sec  15/ 15 done)
                    *** THE CP-SCF HAS CONVERGED ***

                                                 ... done   (     12.0 sec)
Forming perturbed density Hessian contributions  ... done   (      0.0 sec)
2nd integral derivative contribs (SHARK-RI)      ... done   (     42.9 sec)
Exchange-correlation Hessian                     ... done   (      2.7 sec)
Dipole derivatives                               ... (center of mass: -0.018411, -0.007001 -0.003159)done   (      0.1 sec)

Total SCF Hessian time: 0 days 0 hours 1 min 28 sec 

Writing the Hessian file to the disk             ... done


Maximum memory used throughout the entire SCFHESS-calculation: 164.2 MB

-----------------------
VIBRATIONAL FREQUENCIES
-----------------------

Scaling factor for frequencies =  0.980000000  (already applied!)

   0:         0.00 cm**-1
   1:         0.00 cm**-1
   2:         0.00 cm**-1
   3:         0.00 cm**-1
   4:         0.00 cm**-1
   5:         0.00 cm**-1
   6:       465.26 cm**-1
   7:       694.64 cm**-1
   8:       988.39 cm**-1
   9:      1151.92 cm**-1
  10:      1181.91 cm**-1
  11:      1347.36 cm**-1
  12:      1499.30 cm**-1
  13:      2914.91 cm**-1
  14:      3511.21 cm**-1


------------
NORMAL MODES
------------

These modes are the Cartesian displacements weighted by the diagonal matrix
M(i,i)=1/sqrt(m[i]) where m[i] is the mass of the displaced atom
Thus, these vectors are normalized but *not* orthogonal

                  0          1          2          3          4          5    
      0       0.000000   0.000000   0.000000   0.000000   0.000000   0.000000
      1       0.000000   0.000000   0.000000   0.000000   0.000000   0.000000
      2       0.000000   0.000000   0.000000   0.000000   0.000000   0.000000
      3       0.000000   0.000000   0.000000   0.000000   0.000000   0.000000
      4       0.000000   0.000000   0.000000   0.000000   0.000000   0.000000
      5       0.000000   0.000000   0.000000   0.000000   0.000000   0.000000
      6       0.000000   0.000000   0.000000   0.000000   0.000000   0.000000
      7       0.000000   0.000000   0.000000   0.000000   0.000000   0.000000
      8       0.000000   0.000000   0.000000   0.000000   0.000000   0.000000
      9       0.000000   0.000000   0.000000   0.000000   0.000000   0.000000
     10       0.000000   0.000000   0.000000   0.000000   0.000000   0.000000
     11       0.000000   0.000000   0.000000   0.000000   0.000000   0.000000
     12       0.000000   0.000000   0.000000   0.000000   0.000000   0.000000
     13       0.000000   0.000000   0.000000   0.000000   0.000000   0.000000
     14       0.000000   0.000000   0.000000   0.000000   0.000000   0.000000
                  6          7          8          9         10         11    
      0       0.011310  -0.029125   0.007907   0.038706  -0.067170  -0.140416
      1      -0.087559   0.095905  -0.025961   0.041931  -0.071696  -0.047467
      2      -0.238840  -0.036538   0.009948   0.079189  -0.134599  -0.012744
      3      -0.317335   0.030862  -0.053629   0.012154   0.130994   0.180125
      4      -0.036795  -0.101548   0.176683  -0.003389   0.008290   0.031499
      5       0.156002   0.038692  -0.067366  -0.018632  -0.082748  -0.060817
      6       0.253142  -0.012810   0.011834  -0.016715  -0.029509   0.001686
      7       0.132938   0.042113  -0.039085  -0.001887   0.075044   0.023292
      8       0.147273  -0.016072   0.014825   0.008340   0.220432   0.059794
      9      -0.186420   0.267653   0.067219  -0.276950   0.149977  -0.360367
     10      -0.312592  -0.881406  -0.221019  -0.327145   0.185913  -0.295138
     11      -0.670162   0.336090   0.084472  -0.637254   0.368577  -0.487618
     12      -0.229700   0.030201   0.258476  -0.216904  -0.176384   0.415991
     13       0.030771  -0.099206  -0.851868  -0.268054  -0.337842   0.303504
     14       0.264638   0.037901   0.325044  -0.529996  -0.744922   0.465517
                 12         13         14    
      0      -0.154669   0.002641   0.056635
      1      -0.101742   0.001806   0.006938
      2      -0.143782   0.002635  -0.026909
      3       0.215338  -0.074206  -0.000708
      4       0.276334  -0.011583  -0.000433
      5       0.553437   0.028663  -0.000572
      6       0.011241  -0.002847   0.000101
      7      -0.085742   0.000377  -0.000290
      8      -0.233876   0.003251  -0.000840
      9      -0.110142   0.000069  -0.886775
     10      -0.042673   0.002928  -0.098836
     11      -0.024234   0.007601   0.447045
     12      -0.179272   0.887408  -0.005291
     13      -0.274276   0.100425  -0.001530
     14      -0.576149  -0.442558   0.000197


-----------
IR SPECTRUM
-----------

 Mode   freq       eps      Int      T**2         TX        TY        TZ
       cm**-1   L/(mol*cm) km/mol    a.u.
----------------------------------------------------------------------------
  6:    465.26   0.007290   36.84  0.004890  (-0.066171 -0.022038 -0.005047)
  7:    694.64   0.035065  177.20  0.015753  ( 0.034300 -0.112811  0.043010)
  8:    988.39   0.003114   15.74  0.000983  ( 0.008568 -0.028179  0.010763)
  9:   1151.92   0.034643  175.07  0.009385  (-0.053013 -0.042444 -0.069088)
 10:   1181.91   0.002766   13.98  0.000730  ( 0.025929  0.007594 -0.000695)
 11:   1347.36   0.001331    6.73  0.000308  ( 0.016018  0.002257 -0.006825)
 12:   1499.30   0.025760  130.18  0.005362  ( 0.050017  0.031611  0.043137)
 13:   2914.91   0.020666  104.44  0.002212  ( 0.035306 -0.001120 -0.031059)
 14:   3511.21   0.057679  291.49  0.005126  (-0.068878 -0.018285  0.006908)

* The epsilon (eps) is given for a Dirac delta lineshape.
** The dipole moment derivative (T) already includes vibrational overlap.

The first frequency considered to be a vibration is 6
The total number of vibrations considered is 9


--------------------------
THERMOCHEMISTRY AT 298.15K
--------------------------

Temperature         ... 298.15 K
Pressure            ... 1.00 atm
Total Mass          ... 46.02 AMU

Throughout the following assumptions are being made:
  (1) The electronic state is orbitally nondegenerate
      but the spin degeneracy is treated
  (2) There are no thermally accessible electronically excited states
  (3) Hindered rotations indicated by low frequency modes are not
      treated as such but are treated as vibrations and this may
      cause some error
  (4) All equations used are the standard statistical mechanics
      equations for an ideal gas
  (5) All vibrations are strictly harmonic

freq.     465.26  E(vib)   ...       0.16 
freq.     694.64  E(vib)   ...       0.07 
freq.     988.39  E(vib)   ...       0.02 
freq.    1151.92  E(vib)   ...       0.01 
freq.    1181.91  E(vib)   ...       0.01 
freq.    1347.36  E(vib)   ...       0.01 
freq.    1499.30  E(vib)   ...       0.00 
freq.    2914.91  E(vib)   ...       0.00 
freq.    3511.21  E(vib)   ...       0.00 

------------
INNER ENERGY
------------

The inner energy is: U= E(el) + E(ZPE) + E(vib) + E(rot) + E(trans)
    E(el)   - is the total energy from the electronic structure calculation
              = E(kin-el) + E(nuc-el) + E(el-el) + E(nuc-nuc)
    E(ZPE)  - the the zero temperature vibrational energy from the frequency calculation
    E(vib)  - the the finite temperature correction to E(ZPE) due to population
              of excited vibrational states
    E(rot)  - is the rotational thermal energy
    E(trans)- is the translational thermal energy

Summary of contributions to the inner energy U:
Electronic energy                ...   -189.36020482 Eh
Zero point energy                ...      0.03133596 Eh      19.66 kcal/mol
Thermal vibrational correction   ...      0.00045698 Eh       0.29 kcal/mol
Thermal rotational correction    ...      0.00141627 Eh       0.89 kcal/mol
Thermal translational correction ...      0.00141627 Eh       0.89 kcal/mol
-----------------------------------------------------------------------
Total thermal energy                   -189.32557934 Eh


Summary of corrections to the electronic energy:
(perhaps to be used in another calculation)
Total thermal correction                  0.00328953 Eh       2.06 kcal/mol
Non-thermal (ZPE) correction              0.03133596 Eh      19.66 kcal/mol
-----------------------------------------------------------------------
Total correction                          0.03462549 Eh      21.73 kcal/mol


--------
ENTHALPY
--------

The enthalpy is H = U + kB*T
                kB is Boltzmann's constant
Total free energy                 ...   -189.32557934 Eh 
Thermal Enthalpy correction       ...      0.00094421 Eh       0.59 kcal/mol
-----------------------------------------------------------------------
Total Enthalpy                    ...   -189.32463513 Eh


Note: Only C1 symmetry has been detected, increase convergence thresholds 
      if your molecule has a higher symmetry. Symmetry factor of 1.0 is   
      used for the rotational entropy correction. 
 

Note: Rotational entropy computed according to Herzberg 
Infrared and Raman Spectra, Chapter V,1, Van Nostrand Reinhold, 1945 
Point Group:  C1, Symmetry Number:   1  
Rotational constants in cm-1:     2.599088     0.406957     0.351863 

Vibrational entropy computed according to the QRRHO of S. Grimme
Chem.Eur.J. 2012 18 9955


-------
ENTROPY
-------

The entropy contributions are T*S = T*(S(el)+S(vib)+S(rot)+S(trans))
     S(el)   - electronic entropy
     S(vib)  - vibrational entropy
     S(rot)  - rotational entropy
     S(trans)- translational entropy
The entropies will be listed as multiplied by the temperature to get
units of energy

Electronic entropy                ...      0.00065446 Eh      0.41 kcal/mol
Vibrational entropy               ...      0.00061402 Eh      0.39 kcal/mol
Rotational entropy                ...      0.00997742 Eh      6.26 kcal/mol
Translational entropy             ...      0.01777224 Eh     11.15 kcal/mol
-----------------------------------------------------------------------
Final entropy term                ...      0.02901814 Eh     18.21 kcal/mol

In case the symmetry of your molecule has not been determined correctly
or in case you have a reason to use a different symmetry number we print 
out the resulting rotational entropy values for sn=1,12 :
 --------------------------------------------------------
|  sn= 1 | S(rot)=       0.00997742 Eh      6.26 kcal/mol|
|  sn= 2 | S(rot)=       0.00932297 Eh      5.85 kcal/mol|
|  sn= 3 | S(rot)=       0.00894014 Eh      5.61 kcal/mol|
|  sn= 4 | S(rot)=       0.00866851 Eh      5.44 kcal/mol|
|  sn= 5 | S(rot)=       0.00845782 Eh      5.31 kcal/mol|
|  sn= 6 | S(rot)=       0.00828568 Eh      5.20 kcal/mol|
|  sn= 7 | S(rot)=       0.00814013 Eh      5.11 kcal/mol|
|  sn= 8 | S(rot)=       0.00801406 Eh      5.03 kcal/mol|
|  sn= 9 | S(rot)=       0.00790285 Eh      4.96 kcal/mol|
|  sn=10 | S(rot)=       0.00780337 Eh      4.90 kcal/mol|
|  sn=11 | S(rot)=       0.00771338 Eh      4.84 kcal/mol|
|  sn=12 | S(rot)=       0.00763122 Eh      4.79 kcal/mol|
 --------------------------------------------------------


-------------------
GIBBS FREE ENERGY
-------------------

The Gibbs free energy is G = H - T*S

Total enthalpy                    ...   -189.32463513 Eh 
Total entropy correction          ...     -0.02901814 Eh    -18.21 kcal/mol
-----------------------------------------------------------------------
Final Gibbs free energy         ...   -189.35365327 Eh

For completeness - the Gibbs free energy minus the electronic energy
G-E(el)                           ...      0.00655155 Eh      4.11 kcal/mol


Timings for individual modules:

Sum of individual times         ...      169.445 sec (=   2.824 min)
GTO integral calculation        ...        4.766 sec (=   0.079 min)   2.8 %
SCF iterations                  ...       62.210 sec (=   1.037 min)  36.7 %
SCF Gradient evaluation         ...       13.994 sec (=   0.233 min)   8.3 %
Geometry relaxation             ...        0.086 sec (=   0.001 min)   0.1 %
Analytical frequency calculation...       88.389 sec (=   1.473 min)  52.2 %
                             ****ORCA TERMINATED NORMALLY****
TOTAL RUN TIME: 0 days 0 hours 2 minutes 51 seconds 429 msec
